LAMMPS data file via write_data, version 29 Oct 2020, timestep = 198000

7 atoms
1 atom types

-5.0 5.0 xlo xhi
-5.0 5.0 ylo yhi
-5.0 5.0 zlo zhi

Masses

1 1

Atoms # atomic

1 1 0.07769241335726486 -1.3958883086917329 0.0 0 0 0
5 1 -1.1321317370061452 0.3972092403233522 0.0 0 0 0
6 1 -1.2152461143365878 -0.6620833120369946 0.0 0 0 0
7 1 -0.10450743539906233 -0.20753870175104513 0.0 0 0 0
3 1 0.8857001881477208 0.561175037892575 0.0 0 0 0
2 1 0.9437307835187436 -0.6236581047947782 0.0 0 0 0
4 1 -0.1554082654252268 0.8974563501263684 0.0 0 0 0

Velocities

1 -0.3638319256960679 0.5391606544378612 0.0
5 0.06441499988155822 -0.41506106534349213 0.0
6 0.13084287457530971 -0.5080297406625602 0.0
7 -0.09173948204612625 0.2588473658576151 0.0
3 -0.12235602446191826 -0.07474009420766381 0.0
2 -0.04813929216782189 -0.17378485810137295 0.0
4 0.4308088499150659 0.3736077380196333 0.0
