LAMMPS data file via write_data, version 29 Oct 2020, timestep = 511000

7 atoms
1 atom types

-5.0 5.0 xlo xhi
-5.0 5.0 ylo yhi
-5.0 5.0 zlo zhi

Masses

1 1

Atoms # atomic

1 1 -0.390904761001784 -1.353508899821932 0.0 0 0 0
6 1 -1.0727975259614233 -0.5219468214533792 0.0 0 0 0
5 1 -0.9529608242331897 0.6117867591022349 0.0 0 0 0
2 1 0.646753092371678 -0.9694912309736443 0.0 0 0 0
7 1 -0.11436413668280736 -0.05534554021017665 0.0 0 0 0
4 1 0.16578077763559218 1.0311760759406232 0.0 0 0 0
3 1 1.018323210909413 0.2240018584392053 0.0 0 0 0

Velocities

1 -0.23101414033656376 -0.3115279752816212 0.0
6 -0.742088281877987 -0.2500883088843975 0.0
5 0.403652326808502 0.530560238698852 0.0
2 0.631063722373727 -0.11234882783350814 0.0
7 -0.02930690769954391 -0.24853888879126507 0.0
4 -0.3636603179028543 0.23853293836535383 0.0
3 0.3313535986348394 0.15341082372659098 0.0
