LAMMPS data file via write_data, version 29 Oct 2020, timestep = 987000

7 atoms
1 atom types

-5.0 5.0 xlo xhi
-5.0 5.0 ylo yhi
-5.0 5.0 zlo zhi

Masses

1 1

Atoms # atomic

2 1 0.20874658170893523 -1.3280094453382307 0.0 0 0 0
6 1 -1.1837519497379543 0.14565659412812063 0.0 0 0 0
1 1 -0.9437252743516474 -0.8994435819325771 0.0 0 0 0
7 1 -0.06432890835443038 -0.09338152902383381 0.0 0 0 0
5 1 -0.4470949900694976 0.9836764192584895 0.0 0 0 0
4 1 0.72751771682518 0.6725047990024894 0.0 0 0 0
3 1 1.0024666577947974 -0.5143310550971356 0.0 0 0 0

Velocities

2 -0.44793666826719275 -0.23458293698553087 0.0
6 -0.08986860948261272 0.48339781813756627 0.0
1 0.6148922473643006 -0.39100056193293947 0.0
7 0.28191217241348615 -0.1664393071365431 0.0
5 -0.8762373366529138 0.47474484352261653 0.0
4 0.3885262850333652 0.16071227276846126 0.0
3 0.12871190959176457 -0.32683212837367476 0.0
