LAMMPS data file via write_data, version 29 Oct 2020, timestep = 706000

7 atoms
1 atom types

-5.0 5.0 xlo xhi
-5.0 5.0 ylo yhi
-5.0 5.0 zlo zhi

Masses

1 1

Atoms # atomic

2 1 0.652503963364007 -1.0262727121540751 0.0 0 0 0
1 1 -0.7416137061814789 -1.1493558835060889 0.0 0 0 0
6 1 -1.2808135046514393 -0.222751612537546 0.0 0 0 0
5 1 -0.7275580900743736 0.7099324244059848 0.0 0 0 0
7 1 -0.048987363640037154 -0.2037249210110729 0.0 0 0 0
4 1 0.3424600321939088 0.8653847550392857 0.0 0 0 0
3 1 1.1038385022843793 -0.0065398492261408096 0.0 0 0 0

Velocities

2 0.5281120932554364 0.13294946006745778 0.0
1 0.30713292982985446 -0.20025365025557285 0.0
6 -0.19357652903261696 0.6353884419978701 0.0
5 0.13037846280084922 -0.28493947770096606 0.0
7 -0.9748617065622254 0.19535980937195419 0.0
4 -0.11338121247007765 -0.32586921965829313 0.0
3 0.31619596217896373 -0.15263536382245826 0.0
