LAMMPS data file via write_data, version 29 Oct 2020, timestep = 113000

7 atoms
1 atom types

-5.0 5.0 xlo xhi
-5.0 5.0 ylo yhi
-5.0 5.0 zlo zhi

Masses

1 1

Atoms # atomic

1 1 0.010181523478757204 -1.2963455436147457 0.0 0 0 0
5 1 -1.160502415243921 0.4000335947188715 0.0 0 0 0
6 1 -1.1373067109886934 -0.6353858176984846 0.0 0 0 0
3 1 0.8386500242448878 0.3996195400731072 0.0 0 0 0
7 1 -0.08268489762157247 -0.14781416856817461 0.0 0 0 0
2 1 0.9544005795360598 -0.7633320816546318 0.0 0 0 0
4 1 -0.12290827053844365 1.0098966778004768 0.0 0 0 0

Velocities

1 0.16052650738121613 0.3614470143135077 0.0
5 0.21635857980226458 -0.09802007322957214 0.0
6 -0.2044442654878864 0.034722354293649574 0.0
3 0.5317674727545347 0.26115121322483187 0.0
7 -0.14073456108380147 0.32688394319383157 0.0
2 -0.3497682507339923 -0.07984542309274584 0.0
4 -0.2137054826323486 -0.8063390287035088 0.0
