LAMMPS Description 

7 atoms
0 bonds
0 angles
0 dihedrals
0 impropers

1 atom types

-2.0 2.0 xlo xhi
-2.0 2.0 ylo yhi
-2.0 2.0 zlo zhi

Masses

1 39.948

Atoms

1 1 0.3087561533572384 1.0269883913096398 0.0
2 1 -0.7958231720890951 0.8728281869833636 0.0
3 1 -1.1401372941452146 -0.3266033981792757 0.0
4 1 -0.4074954328948848 -1.1309720341863756 0.0
5 1 0.7587371797737686 -0.8685936987056547 0.0
6 1 1.0698194292321122 0.22722687168309025 0.0
7 1 -0.019084940474553606 -0.031532773878168066 0.0
