LAMMPS data file via write_data, version 29 Oct 2020, timestep = 159000

7 atoms
1 atom types

-5.0 5.0 xlo xhi
-5.0 5.0 ylo yhi
-5.0 5.0 zlo zhi

Masses

1 1

Atoms # atomic

1 1 -0.29201239632781273 -1.3044328478577598 0.0 0 0 0
6 1 -1.160347227196939 -0.692767342715628 0.0 0 0 0
5 1 -0.9872404390125417 0.3736520607236121 0.0 0 0 0
7 1 -0.0659479668423732 -0.1368300160288662 0.0 0 0 0
2 1 0.9017320950867562 -0.6992599377666849 0.0 0 0 0
3 1 0.9434758546119263 0.41300407279895407 0.0 0 0 0
4 1 -0.03983008745792095 1.0133062119068292 0.0 0 0 0

Velocities

1 -0.4675113240135612 0.26815082280420754 0.0
6 0.08846390410348809 0.336756665370046 0.0
5 0.08950828690897325 -1.0096871638237388 0.0
7 0.5201603592166385 0.04286592175178953 0.0
2 0.041537087823676024 -0.0683961796091822 0.0
3 -0.13312949852042788 -0.16290770871335322 0.0
4 -0.13902881551880325 0.5932176422202472 0.0
