LAMMPS data file via write_data, version 29 Oct 2020, timestep = 302000

7 atoms
1 atom types

-5.0 5.0 xlo xhi
-5.0 5.0 ylo yhi
-5.0 5.0 zlo zhi

Masses

1 1

Atoms # atomic

1 1 0.15317748660151786 -1.2238187716841644 0.0 0 0 0
6 1 -1.2415832200697043 -0.6565423881765327 0.0 0 0 0
5 1 -1.1727393028813577 0.44589835572772074 0.0 0 0 0
7 1 -0.2277100673677132 -0.1460500404569066 0.0 0 0 0
3 1 0.7817254650760139 0.3132383228519145 0.0 0 0 0
4 1 -0.22637381671317217 0.954223646051849 0.0 0 0 0
2 1 1.2333332882234664 -0.7202769232650964 0.0 0 0 0

Velocities

1 -0.3236518141588719 -0.3665663283578894 0.0
6 0.22974157532806994 -0.21608811761671165 0.0
5 0.13681040572320555 -0.17907474590927205 0.0
7 -0.10016359182489745 0.07401344913736106 0.0
3 0.5044196996574336 0.21892812868056036 0.0
4 -0.19280474139941703 0.4634438824695243 0.0
2 -0.2543515333255001 0.005343731596397979 0.0
