LAMMPS data file via write_data, version 29 Oct 2020, timestep = 189000

7 atoms
1 atom types

-5.0 5.0 xlo xhi
-5.0 5.0 ylo yhi
-5.0 5.0 zlo zhi

Masses

1 1

Atoms # atomic

1 1 0.027764537088005383 -1.2758341042823371 0.0 0 0 0
5 1 -1.21216330181251 0.345753804487081 0.0 0 0 0
6 1 -1.0580077219830843 -0.8275569306624753 0.0 0 0 0
7 1 -0.13599665927627677 -0.12505395093963556 0.0 0 0 0
3 1 0.8607887532145815 0.5167269511598053 0.0 0 0 0
2 1 0.9508440817557066 -0.5550188741364861 0.0 0 0 0
4 1 -0.13339985612943886 0.8876553054399551 0.0 0 0 0

Velocities

1 0.43491252976003253 0.17358923862442668 0.0
5 -0.13371608714477948 0.14205009892595633 0.0
6 -0.6599919798585894 -0.41483908472728853 0.0
7 0.4474038657816735 0.32138269275769005 0.0
3 0.211815639524 0.24425029595410455 0.0
2 -0.2531835781921184 -0.37181315713091473 0.0
4 -0.04724038987022126 -0.09462008440395038 0.0
