LAMMPS data file via write_data, version 29 Oct 2020, timestep = 958000

7 atoms
1 atom types

-5.0 5.0 xlo xhi
-5.0 5.0 ylo yhi
-5.0 5.0 zlo zhi

Masses

1 1

Atoms # atomic

2 1 -0.04880207859169026 -1.3170459490145505 0.0 0 0 0
6 1 -1.1484276110462457 0.321576957816859 0.0 0 0 0
1 1 -1.1112672001456363 -0.8776388433752038 0.0 0 0 0
7 1 -0.020030312404605552 -0.2323991443076248 0.0 0 0 0
4 1 0.8078822568702753 0.5897592450359145 0.0 0 0 0
3 1 1.02676340275895 -0.55523748174674 0.0 0 0 0
5 1 -0.20628862368555542 1.0376574166028458 0.0 0 0 0

Velocities

2 -0.07174160128686256 0.6563765855284194 0.0
6 -0.052069398595433525 0.19470213984409143 0.0
1 0.15438267937505512 -0.09610416782833023 0.0
7 0.07554616873215843 0.11317865028055957 0.0
4 -0.21139351147359078 0.17778494697975478 0.0
3 0.15314392280002556 -0.4403470401976735 0.0
5 -0.047868259551147145 -0.605591114606876 0.0
