LAMMPS data file via write_data, version 29 Oct 2020, timestep = 541000

7 atoms
1 atom types

-5.0 5.0 xlo xhi
-5.0 5.0 ylo yhi
-5.0 5.0 zlo zhi

Masses

1 1

Atoms # atomic

1 1 -0.26136839737602985 -1.3215213375286594 0.0 0 0 0
6 1 -1.143783320122211 -0.519482598788976 0.0 0 0 0
5 1 -1.1833099211928393 0.6886853175454386 0.0 0 0 0
2 1 0.7921228488318627 -0.7952173383547761 0.0 0 0 0
7 1 -0.11441900164678313 -0.20427602991188332 0.0 0 0 0
3 1 1.1187923135286377 0.2518305442656836 0.0 0 0 0
4 1 0.09179531104711551 0.8666536437943764 0.0 0 0 0

Velocities

1 -0.04455262455244439 0.27654532663915243 0.0
6 -0.10451632397937095 0.008081428038279891 0.0
5 0.30259739931874774 -0.5333856203312991 0.0
2 -0.2089300486964808 0.12371991727929561 0.0
7 0.18396899545239725 0.3723577870462861 0.0
3 -0.3003489623775631 -0.057412322421389606 0.0
4 0.17178156483482396 -0.18990651625032956 0.0
