LAMMPS data file via write_data, version 29 Oct 2020, timestep = 584000

7 atoms
1 atom types

-5.0 5.0 xlo xhi
-5.0 5.0 ylo yhi
-5.0 5.0 zlo zhi

Masses

1 1

Atoms # atomic

1 1 -0.48560031212296384 -1.2035238732473004 0.0 0 0 0
2 1 0.6078103667787509 -0.9622076886384974 0.0 0 0 0
6 1 -1.2864455200944163 -0.32738958106982297 0.0 0 0 0
5 1 -0.7990933833872003 0.7206827832783641 0.0 0 0 0
7 1 -0.19788862004636304 -0.1200865461392446 0.0 0 0 0
4 1 0.37020397440661257 0.8358287342167893 0.0 0 0 0
3 1 1.090843327580369 0.02336837261575704 0.0 0 0 0

Velocities

1 -0.07678139756251777 0.29379216685911486 0.0
2 0.5547362590596331 0.0685928063243312 0.0
6 -0.1280565106110409 0.2801516274366085 0.0
5 0.28359954596536047 -0.17378479725593912 0.0
7 0.26462479338621825 -0.5037010057230346 0.0
4 -0.6000065898217798 0.764040723482616 0.0
3 -0.29811610041574876 -0.7290915211237081 0.0
