LAMMPS data file via write_data, version 29 Oct 2020, timestep = 745000

7 atoms
1 atom types

-5.0 5.0 xlo xhi
-5.0 5.0 ylo yhi
-5.0 5.0 zlo zhi

Masses

1 1

Atoms # atomic

1 1 -0.6370493992741049 -1.2071636598913291 0.0 0 0 0
2 1 0.6109557025288553 -1.1444347860751376 0.0 0 0 0
6 1 -1.1829979260206809 -0.2111143243414717 0.0 0 0 0
5 1 -0.7464944463001196 0.8169986551764344 0.0 0 0 0
7 1 -0.13985824792836704 -0.12385879546626513 0.0 0 0 0
4 1 0.34327686635430377 0.9194241345734538 0.0 0 0 0
3 1 1.0519972840057263 -0.083179022960621 0.0 0 0 0

Velocities

1 -0.0540594157000725 0.15004285511334878 0.0
2 -0.3481939196450108 0.08857159969409474 0.0
6 -0.35968054239202507 -0.9719410080770519 0.0
5 0.530999540245749 0.13489692685489024 0.0
7 -0.291826042168378 -0.03082419278275443 0.0
4 0.47739307423213256 0.32328062634223215 0.0
3 0.04536730542776733 0.30597319285527014 0.0
