LAMMPS data file via write_data, version 29 Oct 2020, timestep = 55000

7 atoms
1 atom types

-5.0 5.0 xlo xhi
-5.0 5.0 ylo yhi
-5.0 5.0 zlo zhi

Masses

1 1

Atoms # atomic

1 1 0.19691566468814736 -1.1737685276149095 0.0 0 0 0
5 1 -1.1022010069773616 0.13055167011695537 0.0 0 0 0
6 1 -0.8633624013327399 -1.019236603901131 0.0 0 0 0
3 1 0.6184813787471264 0.6174476722120545 0.0 0 0 0
7 1 -0.08666103598356312 -0.15392627548893179 0.0 0 0 0
4 1 -0.4255839597594381 1.0367261739335698 0.0 0 0 0
2 1 0.9622411934924355 -0.47112190820217825 0.0 0 0 0

Velocities

1 -0.513141489160685 -0.300186237589496 0.0
5 -0.13596581691738152 -0.14624837294560666 0.0
6 -0.15211745157934886 0.30081545864162407 0.0
3 -0.33853692875222047 -0.3701999717465628 0.0
7 0.3731785228747023 -0.12102439131849309 0.0
4 -0.058075730037430134 0.15296323713847482 0.0
2 0.824658893572346 0.48388027782006454 0.0
