LAMMPS data file via write_data, version 29 Oct 2020, timestep = 709000

7 atoms
1 atom types

-5.0 5.0 xlo xhi
-5.0 5.0 ylo yhi
-5.0 5.0 zlo zhi

Masses

1 1

Atoms # atomic

2 1 0.5542278082658398 -1.0861373934146783 0.0 0 0 0
1 1 -0.6406787978320635 -1.2015621901034437 0.0 0 0 0
6 1 -1.1838164645332154 -0.2545472466607435 0.0 0 0 0
5 1 -0.7697402260735589 0.8683861413705081 0.0 0 0 0
7 1 -0.08281477953013193 -0.17241037315671198 0.0 0 0 0
4 1 0.3942347490352083 0.8965960096965923 0.0 0 0 0
3 1 1.0284175439685013 -0.08365274672131476 0.0 0 0 0

Velocities

2 0.1401770899651911 0.49567365195542434 0.0
1 0.18963080137157132 0.7128507043795586 0.0
6 0.23998557918050006 0.1577262257842945 0.0
5 0.2901858763930721 -0.20162874425800162 0.0
7 -0.10082544048730303 -0.6903146018459213 0.0
4 0.031406381726829136 -0.8934374551461196 0.0
3 -0.7905602881496734 0.41913021913075904 0.0
