LAMMPS data file via write_data, version 29 Oct 2020, timestep = 354000

7 atoms
1 atom types

-5.0 5.0 xlo xhi
-5.0 5.0 ylo yhi
-5.0 5.0 zlo zhi

Masses

1 1

Atoms # atomic

1 1 0.05624998098650397 -1.2762085772427179 0.0 0 0 0
5 1 -1.1855176644809573 0.24861644894747312 0.0 0 0 0
6 1 -1.0143052965151422 -0.8242605599502241 0.0 0 0 0
7 1 -0.09128191190700358 -0.10352882733197706 0.0 0 0 0
3 1 0.8004246084112804 0.5068854247179793 0.0 0 0 0
4 1 -0.23338214868458337 1.0008497223513957 0.0 0 0 0
2 1 0.9676422650749942 -0.5856814304522491 0.0 0 0 0

Velocities

1 0.09841708918673524 0.18195442832656564 0.0
5 -0.3457970990054926 0.026601793157622265 0.0
6 -0.5829476124467013 0.5584264697810618 0.0
7 -0.6538004800134892 -0.4367836979838507 0.0
3 0.6206891977126283 0.29764323384401004 0.0
4 -0.0216798118355033 -0.8561615833178197 0.0
2 0.8851187164018467 0.2283193561923976 0.0
