LAMMPS data file via write_data, version 29 Oct 2020, timestep = 672000

7 atoms
1 atom types

-5.0 5.0 xlo xhi
-5.0 5.0 ylo yhi
-5.0 5.0 zlo zhi

Masses

1 1

Atoms # atomic

1 1 -0.5310033863978699 -1.1602482167718926 0.0 0 0 0
2 1 0.5223401184677151 -1.0740988560823574 0.0 0 0 0
6 1 -1.2522317264847658 -0.33834035355540193 0.0 0 0 0
5 1 -0.7197301590219467 0.7614615364572346 0.0 0 0 0
7 1 -0.18622538129701258 -0.11309148780082341 0.0 0 0 0
4 1 0.460245325943491 0.9255576814372264 0.0 0 0 0
3 1 1.0064350420280206 -0.03456810266969293 0.0 0 0 0

Velocities

1 0.2580124770125506 0.004096464403736882 0.0
2 0.028638488182581075 0.366627471293162 0.0
6 0.18050793405940335 0.5066573516299886 0.0
5 -0.34744591478467296 -0.014206355604550878 0.0
7 -0.12441981392067906 -0.7832009423491546 0.0
4 0.03541487598619308 0.4363184536224463 0.0
3 -0.030708046535241208 -0.5162924429956282 0.0
