LAMMPS data file via write_data, version 29 Oct 2020, timestep = 668000

7 atoms
1 atom types

-5.0 5.0 xlo xhi
-5.0 5.0 ylo yhi
-5.0 5.0 zlo zhi

Masses

1 1

Atoms # atomic

1 1 -0.5971745916509122 -1.1874682009307413 0.0 0 0 0
6 1 -1.1855578610712696 -0.26321594345209515 0.0 0 0 0
2 1 0.7252376337129276 -1.1167323709213333 0.0 0 0 0
5 1 -0.8654527716624291 0.7267150185169192 0.0 0 0 0
7 1 -0.08967735825507453 -0.09414121257506376 0.0 0 0 0
4 1 0.2940771300603978 0.9540587252054828 0.0 0 0 0
3 1 1.0183776520985934 -0.052543814829080715 0.0 0 0 0

Velocities

1 -0.1319135210420018 0.40660627995200754 0.0
6 -0.5230065387837602 0.26957465016230486 0.0
2 0.33909012940688243 0.4367734188334559 0.0
5 -0.1627531713312097 -0.5299489399772528 0.0
7 0.06539700197051514 -0.15239009588165645 0.0
4 0.11832277247668493 -0.13869906437078106 0.0
3 0.29486332730302783 -0.2919162487180703 0.0
