LAMMPS data file via write_data, version 29 Oct 2020, timestep = 792000

7 atoms
1 atom types

-5.0 5.0 xlo xhi
-5.0 5.0 ylo yhi
-5.0 5.0 zlo zhi

Masses

1 1

Atoms # atomic

1 1 -0.5431343888060188 -1.1502857655791359 0.0 0 0 0
2 1 0.5842094210068994 -1.111263238981102 0.0 0 0 0
6 1 -1.2295515001145323 -0.28961094496028844 0.0 0 0 0
5 1 -0.8262430674816622 0.8588080830735632 0.0 0 0 0
7 1 -0.16010647186588198 -0.1111506831545789 0.0 0 0 0
4 1 0.36705171393380653 0.8887121763009302 0.0 0 0 0
3 1 1.1076041267700778 -0.1185374256726405 0.0 0 0 0

Velocities

1 -0.11923322190166616 0.488331147284796 0.0
2 0.12950142242259105 0.1288732753845736 0.0
6 -0.4604508215594068 -0.5269506375150124 0.0
5 0.43973968092767474 0.33459500511817586 0.0
7 0.5055178653040722 -0.7511727508209655 0.0
4 -0.004258753432182633 0.21709300538600113 0.0
3 -0.4908161717609196 0.10923095516244434 0.0
