LAMMPS data file via write_data, version 29 Oct 2020, timestep = 557000

7 atoms
1 atom types

-5.0 5.0 xlo xhi
-5.0 5.0 ylo yhi
-5.0 5.0 zlo zhi

Masses

1 1

Atoms # atomic

1 1 0.08293378752408567 -1.6439768800262913 0.0 0 0 0
2 1 0.9671944391287705 -1.0042597553362274 0.0 0 0 0
6 1 -1.1534018650091593 0.0782544738213056 0.0 0 0 0
7 1 -0.1489258993815901 -0.4348251850619321 0.0 0 0 0
4 1 -0.138880584863277 0.6845491561312521 0.0 0 0 0
3 1 0.8168733384378428 0.12331852520314898 0.0 0 0 0
5 1 -1.1259633827507403 1.1636118662881756 0.0 0 0 0

Velocities

1 0.22011506058068706 -0.39142716744962086 0.0
2 -0.33271832249852024 0.2314383053570821 0.0
6 -0.30807686736286544 0.6050424715480643 0.0
7 -0.026966151555397735 -0.24005743997923515 0.0
4 0.14069086223285668 0.010045103104892535 0.0
3 0.19974263968364273 0.22419489332287215 0.0
5 0.10721277891969708 -0.4392361659040656 0.0
