LAMMPS data file via write_data, version 29 Oct 2020, timestep = 463000

7 atoms
1 atom types

-5.0 5.0 xlo xhi
-5.0 5.0 ylo yhi
-5.0 5.0 zlo zhi

Masses

1 1

Atoms # atomic

1 1 -0.4082163315773587 -1.3503533312483262 0.0 0 0 0
6 1 -1.1498868478492128 -0.5924793406635704 0.0 0 0 0
2 1 0.7569187812325257 -0.8717181062903179 0.0 0 0 0
5 1 -0.8385814899005649 0.6629245154299579 0.0 0 0 0
7 1 -0.1062540894942137 -0.249201555816421 0.0 0 0 0
4 1 0.17461032383986447 1.1019763468623807 0.0 0 0 0
3 1 0.8712394867249483 0.2655236727517081 0.0 0 0 0

Velocities

1 0.10765687077793151 -0.11802874961306742 0.0
6 -0.37327206842821953 -0.19493240490341535 0.0
2 0.003427397504200555 -0.50006616001309 0.0
5 0.2779755376904004 -0.37191955807709315 0.0
7 -0.06534197147994944 0.44940892305080626 0.0
4 -0.01635040209135751 0.7549927617674108 0.0
3 0.06590463602711617 -0.01945481221155186 0.0
