LAMMPS data file via write_data, version 29 Oct 2020, timestep = 591000

7 atoms
1 atom types

-5.0 5.0 xlo xhi
-5.0 5.0 ylo yhi
-5.0 5.0 zlo zhi

Masses

1 1

Atoms # atomic

1 1 -0.6783753157434522 -1.2089085045861356 0.0 0 0 0
2 1 0.6385445388958129 -1.0697720770279608 0.0 0 0 0
6 1 -1.22453189083737 -0.224098251883223 0.0 0 0 0
5 1 -0.7116255800033947 0.8455481256055465 0.0 0 0 0
7 1 -0.13743793705807053 -0.15877687679109634 0.0 0 0 0
4 1 0.44986410519114917 0.8456389593054409 0.0 0 0 0
3 1 0.9633919126794629 -0.06295917360700648 0.0 0 0 0

Velocities

1 -0.1659685758342854 0.8135074343665092 0.0
2 -0.18849530392838948 0.31204321310243566 0.0
6 0.23596327789704735 -0.1684980488617025 0.0
5 0.2872218167811745 -0.4347878220184874 0.0
7 -0.190628549842291 -0.564912183631407 0.0
4 -0.4294593941482979 0.09912442537271002 0.0
3 0.45136672907518316 -0.05647701833006378 0.0
