LAMMPS data file via write_data, version 29 Oct 2020, timestep = 963000

7 atoms
1 atom types

-5.0 5.0 xlo xhi
-5.0 5.0 ylo yhi
-5.0 5.0 zlo zhi

Masses

1 1

Atoms # atomic

2 1 -0.05194532992495716 -1.330941171180607 0.0 0 0 0
6 1 -1.1579308529682146 0.2543597791307482 0.0 0 0 0
1 1 -1.0072239261258955 -0.8409760406312838 0.0 0 0 0
7 1 -0.05607336735678338 -0.1539870313703821 0.0 0 0 0
4 1 0.7183669987892488 0.5924452277489549 0.0 0 0 0
5 1 -0.2814895964322646 0.9915577690896598 0.0 0 0 0
3 1 1.1361259077847259 -0.545786331778134 0.0 0 0 0

Velocities

2 -0.21460067096992427 0.5024249562325308 0.0
6 0.0024007100422769774 -0.6578305455203991 0.0
1 0.2427959070231157 0.30569573188051447 0.0
7 -0.268832132135285 0.5138049829373061 0.0
4 -0.19570479639545735 -0.14664711621266543 0.0
5 0.19260495616124396 -0.25471152830079064 0.0
3 0.24133602627423503 -0.26273648101654234 0.0
