LAMMPS data file via write_data, version 29 Oct 2020, timestep = 612000

7 atoms
1 atom types

-5.0 5.0 xlo xhi
-5.0 5.0 ylo yhi
-5.0 5.0 zlo zhi

Masses

1 1

Atoms # atomic

1 1 -0.6867036503190884 -1.1270832913737294 0.0 0 0 0
2 1 0.6409262185925683 -1.2237758268716894 0.0 0 0 0
6 1 -1.2216928539471248 -0.05402125405256865 0.0 0 0 0
5 1 -0.6640193454117053 0.8851130011723872 0.0 0 0 0
7 1 -0.15420809391383752 -0.1109517285235579 0.0 0 0 0
4 1 0.4112393478850287 0.7767452249962338 0.0 0 0 0
3 1 0.9742882102672185 -0.17935392433166206 0.0 0 0 0

Velocities

1 -0.16731180905892984 -0.1935922977296094 0.0
2 0.009728181568091531 0.08987719711565562 0.0
6 -0.11575943713551973 -0.7941676736418689 0.0
5 0.23396339450566037 0.6080669195264116 0.0
7 -0.0625879959767574 0.2473486264571954 0.0
4 0.14091853507137583 0.4384048340290595 0.0
3 -0.03895086897377388 -0.3959376057568356 0.0
