LAMMPS data file via write_data, version 29 Oct 2020, timestep = 902000

7 atoms
1 atom types

-5.0 5.0 xlo xhi
-5.0 5.0 ylo yhi
-5.0 5.0 zlo zhi

Masses

1 1

Atoms # atomic

2 1 0.23355905514254802 -1.1916720464715351 0.0 0 0 0
6 1 -1.3623653367589774 0.07140362098279258 0.0 0 0 0
1 1 -0.8550879249505429 -1.0321203712971116 0.0 0 0 0
7 1 -0.10722098015310098 -0.09649240577767004 0.0 0 0 0
4 1 0.7149827020592174 0.6549197133559789 0.0 0 0 0
5 1 -0.3535431755658762 0.9469657593989671 0.0 0 0 0
3 1 1.02950549386301 -0.38633206916291174 0.0 0 0 0

Velocities

2 -0.22500006669225547 -0.1739038067614665 0.0
6 -0.6418502499740525 0.2228288243324938 0.0
1 0.3681321011892105 -0.0681449224213273 0.0
7 0.10291485552530251 -0.1373688655346959 0.0
4 0.7389417221763221 -0.5063797666182235 0.0
5 -0.5470285252851568 0.2383972522296172 0.0
3 0.20389016306082045 0.42457128477359113 0.0
