LAMMPS data file via write_data, version 29 Oct 2020, timestep = 20000

7 atoms
1 atom types

-5.0 5.0 xlo xhi
-5.0 5.0 ylo yhi
-5.0 5.0 zlo zhi

Masses

1 1

Atoms # atomic

6 1 -1.452093474412512 -1.1205752326295053 0.0 0 0 0
1 1 -0.3500580926495265 -1.2664526589694731 0.0 0 0 0
5 1 -0.8186355799411663 -0.22982833959316926 0.0 0 0 0
3 1 0.7001673903246783 0.9489411001536407 0.0 0 0 0
7 1 0.25373207808601717 -0.18098743717396334 0.0 0 0 0
4 1 -0.38958419152196017 0.7740948705581974 0.0 0 0 0
2 1 1.3563017029909878 0.04147989870804784 0.0 0 0 0

Velocities

6 -0.23747746319715862 -0.14298434608446275 0.0
1 -0.004538822140189367 -0.053316646086112564 0.0
5 0.6556116296203222 0.3941410106919927 0.0
3 0.06779310933059955 0.05560594385660347 0.0
7 -0.44786600946564037 0.2522033624691585 0.0
4 0.09930400562205575 -0.5826194625112067 0.0
2 -0.13282644976998753 0.07697013766401373 0.0
