LAMMPS data file via write_data, version 29 Oct 2020, timestep = 196000

7 atoms
1 atom types

-5.0 5.0 xlo xhi
-5.0 5.0 ylo yhi
-5.0 5.0 zlo zhi

Masses

1 1

Atoms # atomic

1 1 -0.03981909346404787 -1.2887781771514968 0.0 0 0 0
5 1 -1.0557074400854283 0.4093664521000179 0.0 0 0 0
6 1 -1.0650702186825385 -0.840775614241214 0.0 0 0 0
7 1 -0.13592556917107637 -0.19506733198735685 0.0 0 0 0
3 1 0.8701420191818082 0.611304875046812 0.0 0 0 0
2 1 0.8763566576829038 -0.669938959732487 0.0 0 0 0
4 1 -0.15014652260486644 0.9405609570331022 0.0 0 0 0

Velocities

1 -0.0011111644386297905 0.16990274873224837 0.0
5 -0.21814523625910323 0.3016455779892795 0.0
6 0.15167801174493084 -0.5002848650823944 0.0
7 -0.25671695608974965 -0.6779265589665829 0.0
3 -0.022065068532988192 -0.11473714796005731 0.0
2 0.143900493655888 -0.15722281462606372 0.0
4 0.20245991991964601 0.9786230599135889 0.0
