LAMMPS data file via write_data, version 29 Oct 2020, timestep = 181000

7 atoms
1 atom types

-5.0 5.0 xlo xhi
-5.0 5.0 ylo yhi
-5.0 5.0 zlo zhi

Masses

1 1

Atoms # atomic

1 1 -0.12603403007470507 -1.2313680460582335 0.0 0 0 0
5 1 -0.9993566952412792 0.3388555182014159 0.0 0 0 0
6 1 -1.1712813864609128 -0.8278384130549017 0.0 0 0 0
7 1 -0.03171092977745264 -0.16123498997843555 0.0 0 0 0
3 1 0.8570190394144469 0.47646455601872084 0.0 0 0 0
2 1 0.9659479969283562 -0.7443441940152081 0.0 0 0 0
4 1 -0.19475416193098657 1.1161377699508557 0.0 0 0 0

Velocities

1 -0.03233282019414092 -0.43109177648795577 0.0
5 0.2736387826589224 0.09188115291541041 0.0
6 0.34835010642463554 -0.11483867699466369 0.0
7 -0.1194530153065742 0.10667252875480239 0.0
3 -0.6373668055262591 0.3647124500396188 0.0
2 0.01229553963931217 -0.5911405756044852 0.0
4 0.15486821230409273 0.573804897377295 0.0
