LAMMPS data file via write_data, version 29 Oct 2020, timestep = 413000

7 atoms
1 atom types

-5.0 5.0 xlo xhi
-5.0 5.0 ylo yhi
-5.0 5.0 zlo zhi

Masses

1 1

Atoms # atomic

1 1 -0.30137061903104023 -0.9891184181876875 0.0 0 0 0
5 1 -0.8222132284562534 -0.02839815374492561 0.0 0 0 0
6 1 -1.4513756526728832 -0.9878111355258822 0.0 0 0 0
7 1 0.24710268349471315 0.023963401387101936 0.0 0 0 0
3 1 0.9521272101167029 0.8707912921716333 0.0 0 0 0
2 1 0.93183351828005 -0.9120097292039415 0.0 0 0 0
4 1 -0.2562740788120205 0.9892549441334174 0.0 0 0 0

Velocities

1 -0.08419280039485252 -0.08890412986934054 0.0
5 -0.17059739275499722 -0.13217894976487676 0.0
6 -0.6654638132973194 0.05727223713647573 0.0
7 0.31026129030319577 -0.17500381063982778 0.0
3 0.03868836686392445 0.09512208873846825 0.0
2 0.7108394622587497 -0.031100890998154728 0.0
4 -0.13953511297860513 0.2747934553972424 0.0
