LAMMPS data file via write_data, version 29 Oct 2020, timestep = 795000

7 atoms
1 atom types

-5.0 5.0 xlo xhi
-5.0 5.0 ylo yhi
-5.0 5.0 zlo zhi

Masses

1 1

Atoms # atomic

1 1 -0.08340864388940053 -1.1904732279468084 0.0 0 0 0
2 1 1.0723523964787538 -1.3835783553731884 0.0 0 0 0
6 1 -1.5212624971054478 0.08833075837906755 0.0 0 0 0
7 1 -0.39383772037779935 -0.06915024575930397 0.0 0 0 0
4 1 0.3715100452091833 0.8483344558285347 0.0 0 0 0
3 1 0.6702591206231843 -0.32115717798470794 0.0 0 0 0
5 1 -0.815782867490944 0.9943659938835633 0.0 0 0 0

Velocities

1 0.22638186338958635 -0.32701230302158774 0.0
2 0.047404408854693464 0.48964538077469355 0.0
6 0.1323911835527361 0.12792992692945707 0.0
7 0.34070493420741377 -0.08229539694973939 0.0
4 -0.18262187951744144 -0.3554044494739402 0.0
3 -0.5216539064582081 -0.34641619851101346 0.0
5 -0.04260660402861709 0.49355304025214447 0.0
