LAMMPS Description 

7 atoms
0 bonds
0 angles
0 dihedrals
0 impropers

1 atom types

-2.0 2.0 xlo xhi
-2.0 2.0 ylo yhi
-2.0 2.0 zlo zhi

Masses

1 39.948

Atoms

1 1 0.09000126261397738 -1.2718173289415933 0.0
2 1 0.9223783939231089 -0.5236747904233634 0.0
3 1 0.7643783415450723 0.6089212628322004 0.0
4 1 -0.2602093831161018 0.9512932406335172 0.0
5 1 -1.1409594565897507 0.23512270513852115 0.0
6 1 -0.9500475945368955 -0.9433149344300659 0.0
7 1 -0.12571173096278979 -0.08985795375317367 0.0
