LAMMPS Description 

7 atoms
0 bonds
0 angles
0 dihedrals
0 impropers

1 atom types

-2.0 2.0 xlo xhi
-2.0 2.0 ylo yhi
-2.0 2.0 zlo zhi

Masses

1 39.948

Atoms

1 1 -0.6005278169603354 0.866301036838658 0.0
2 1 -0.08553793036071541 -0.18066281823285607 0.0
3 1 -0.7486513197032874 -1.0532447819389414 0.0
4 1 0.5555423545229721 0.8612380168111805 0.0
5 1 0.37774400328949115 -1.1390779782317093 0.0
6 1 -1.2269096887205035 -0.12533278590464225 0.0
7 1 1.0281702308090266 -0.26254848828563565 0.0
