LAMMPS Description 

7 atoms
0 bonds
0 angles
0 dihedrals
0 impropers

1 atom types

-2.0 2.0 xlo xhi
-2.0 2.0 ylo yhi
-2.0 2.0 zlo zhi

Masses

1 39.948

Atoms

1 1 -1.3660335199717817 -0.03519446577230533 0.0
2 1 -0.8117242908785685 -0.9733373722267638 0.0
3 1 0.629256583550214 0.8097567439056202 0.0
4 1 -0.026273926120050677 -0.16585686563078772 0.0
5 1 0.36439416160746346 -1.1622485246979135 0.0
6 1 -0.5163237989261376 0.7237012208459066 0.0
7 1 1.0265346236154298 -0.23014853536775406 0.0
