LAMMPS Description 

7 atoms
0 bonds
0 angles
0 dihedrals
0 impropers

1 atom types

-2.0 2.0 xlo xhi
-2.0 2.0 ylo yhi
-2.0 2.0 zlo zhi

Masses

1 39.948

Atoms

1 1 -0.996841367639111 0.33942038895950083 0.0
2 1 0.49878006352659426 -0.9465434682816568 0.0
3 1 -0.3674913980834902 -1.8578915578648145 0.0
4 1 0.8945998288996366 0.8977138877418391 0.0
5 1 -0.19132926919224544 1.1528758830591674 0.0
6 1 -0.6566927656851889 -0.6811759289275222 0.0
7 1 0.1188047410504305 0.062272996369558804 0.0
