LAMMPS Description 

7 atoms
0 bonds
0 angles
0 dihedrals
0 impropers

1 atom types

-2.0 2.0 xlo xhi
-2.0 2.0 ylo yhi
-2.0 2.0 zlo zhi

Masses

1 39.948

Atoms

1 1 -1.206485276252441 -0.14073519977748267 0.0
2 1 -0.12450919640948403 -0.17939065438543647 0.0
3 1 0.4503581602107464 -1.1814850829694286 0.0
4 1 -0.6446357675072419 0.8953335464694638 0.0
5 1 0.947661187646839 -0.1368969534683755 0.0
6 1 -0.6338914040577597 -1.2055314782606608 0.0
7 1 0.5113321292459974 0.9153780234479668 0.0
