LAMMPS Description 

7 atoms
0 bonds
0 angles
0 dihedrals
0 impropers

1 atom types

-2.0 2.0 xlo xhi
-2.0 2.0 ylo yhi
-2.0 2.0 zlo zhi

Masses

1 39.948

Atoms

1 1 0.9043496826563755 0.40639116716691515 0.0
2 1 -0.025243019026839637 1.056207133009947 0.0
3 1 -1.1735414033400713 0.29091853460002454 0.0
4 1 -1.1104503183050405 -0.7454203657829549 0.0
5 1 -0.04864375064958942 -1.2526703507397565 0.0
6 1 0.8869488118423804 -0.6750114573364204 0.0
7 1 -0.13359017030058962 -0.11374245986170074 0.0
