LAMMPS Description 

7 atoms
0 bonds
0 angles
0 dihedrals
0 impropers

1 atom types

-2.0 2.0 xlo xhi
-2.0 2.0 ylo yhi
-2.0 2.0 zlo zhi

Masses

1 39.948

Atoms

1 1 -0.964425369499401 -0.9833439571549658 0.0
2 1 0.7661754762941184 0.5904504584609965 0.0
3 1 0.9972268925108403 -0.5054710235381582 0.0
4 1 -0.09158909898020245 -0.07858424803098482 0.0
5 1 -0.33152943500374993 0.94815199167933 0.0
6 1 0.1022869748130191 -1.1436869202941158 0.0
7 1 -1.178315607257998 0.1391558999339612 0.0
