LAMMPS Description 

7 atoms
0 bonds
0 angles
0 dihedrals
0 impropers

1 atom types

-2.0 2.0 xlo xhi
-2.0 2.0 ylo yhi
-2.0 2.0 zlo zhi

Masses

1 39.948

Atoms

1 1 1.003777558303031 -0.5555829982170026 0.0
2 1 -1.0870864722910158 0.2777710018335507 0.0
3 1 -0.2778985892553619 1.0006915723311962 0.0
4 1 -0.10237509963360637 -0.18591523567520926 0.0
5 1 -1.0324451435324635 -0.7768025889464697 0.0
6 1 0.8034064196211795 0.5146858826019591 0.0
7 1 -0.0075488403350899395 -1.3081754328720046 0.0
