LAMMPS Description 

7 atoms
0 bonds
0 angles
0 dihedrals
0 impropers

1 atom types

-2.0 2.0 xlo xhi
-2.0 2.0 ylo yhi
-2.0 2.0 zlo zhi

Masses

1 39.948

Atoms

1 1 -1.3948352435013136 -1.3653408089211 0.0
2 1 -0.21076005834550296 -1.3993478764884737 0.0
3 1 0.3972537683426746 1.5205713701126202 0.0
4 1 -0.7568592215244779 -0.41415772634670794 0.0
5 1 0.43958099706093623 -0.45807504112912095 0.0
6 1 -0.164806969184586 0.508255982287291 0.0
7 1 0.9902565600288291 0.5747663015414821 0.0
