LAMMPS Description 

7 atoms
0 bonds
0 angles
0 dihedrals
0 impropers

1 atom types

-2.0 2.0 xlo xhi
-2.0 2.0 ylo yhi
-2.0 2.0 zlo zhi

Masses

1 39.948

Atoms

1 1 1.172957880680713 0.857743808320795 0.0
2 1 -2.1811772681597317 -0.3065849435349887 0.0
3 1 -1.0554689586260968 0.12952175841972244 0.0
4 1 0.8824014048182804 -0.26571566801574564 0.0
5 1 0.06187386529763541 0.49705556779164434 0.0
6 1 -0.22650554652925314 -0.5820695070108615 0.0
7 1 0.6457484553950814 -1.363278814914543 0.0
