LAMMPS Description 

7 atoms
0 bonds
0 angles
0 dihedrals
0 impropers

1 atom types

-2.0 2.0 xlo xhi
-2.0 2.0 ylo yhi
-2.0 2.0 zlo zhi

Masses

1 39.948

Atoms

1 1 0.535785130532835 0.9449488902503632 0.0
2 1 -1.0557927201787995 -0.22223179128728293 0.0
3 1 -0.7945089570892533 -1.3920757974158133 0.0
4 1 0.29014457414510086 -1.1381587933982225 0.0
5 1 1.0593063978108157 0.016088254581321487 0.0
6 1 -0.7679393967365495 0.7947824154219278 0.0
7 1 0.032834804392446855 -0.03668097709627544 0.0
