LAMMPS Description 

7 atoms
0 bonds
0 angles
0 dihedrals
0 impropers

1 atom types

-2.0 2.0 xlo xhi
-2.0 2.0 ylo yhi
-2.0 2.0 zlo zhi

Masses

1 39.948

Atoms

1 1 -0.9094060301770924 0.8027933914462254 0.0
2 1 -0.11763661449235022 -0.6304435227746996 0.0
3 1 -0.9003021460334781 -1.3491867081654791 0.0
4 1 0.15550530589068082 0.43894367029210646 0.0
5 1 1.0339921740802986 -0.5653118098888833 0.0
6 1 -1.3049812380898904 -0.2022156363617075 0.0
7 1 1.342658381698502 0.472092816508459 0.0
