LAMMPS Description 

7 atoms
0 bonds
0 angles
0 dihedrals
0 impropers

1 atom types

-2.0 2.0 xlo xhi
-2.0 2.0 ylo yhi
-2.0 2.0 zlo zhi

Masses

1 39.948

Atoms

1 1 0.8168950206417309 0.5154012870532851 0.0
2 1 -1.2089966377031105 0.3722633543135973 0.0
3 1 -1.0385852572016472 -0.8075010504114234 0.0
4 1 -0.022955481900462045 -1.3180133155914227 0.0
5 1 0.98926261275518 -0.7715548833417302 0.0
6 1 -0.10591558306259152 1.116323419857178 0.0
7 1 -0.1298748406525137 -0.14024661082346318 0.0
