LAMMPS Description 

7 atoms
0 bonds
0 angles
0 dihedrals
0 impropers

1 atom types

-2.0 2.0 xlo xhi
-2.0 2.0 ylo yhi
-2.0 2.0 zlo zhi

Masses

1 39.948

Atoms

1 1 0.7086500391568044 -1.8473912335377418 0.0
2 1 0.8410709288842902 0.24886038878669683 0.0
3 1 0.35202304219015523 1.2806757579260295 0.0
4 1 -1.5646737226068963 0.36414148948521646 0.0
5 1 -0.8844420324787194 -0.5831624804142689 0.0
6 1 0.21432832127921167 -0.8799206413003585 0.0
7 1 -0.3671267435482444 0.38346892011044287 0.0
