LAMMPS Description 

7 atoms
0 bonds
0 angles
0 dihedrals
0 impropers

1 atom types

-2.0 2.0 xlo xhi
-2.0 2.0 ylo yhi
-2.0 2.0 zlo zhi

Masses

1 39.948

Atoms

1 1 0.779273270143174 0.45597512171372573 0.0
2 1 -1.0106516504633982 -0.8082941938181467 0.0
3 1 -1.108282009324671 0.47307588525137956 0.0
4 1 -0.16639335107959452 -0.16213548397073643 0.0
5 1 -0.019216528444168747 -1.3646918678479714 0.0
6 1 -0.09781666398779365 0.9870921261893338 0.0
7 1 0.9229167660331311 -0.6143493864615728 0.0
