LAMMPS Description 

7 atoms
0 bonds
0 angles
0 dihedrals
0 impropers

1 atom types

-2.0 2.0 xlo xhi
-2.0 2.0 ylo yhi
-2.0 2.0 zlo zhi

Masses

1 39.948

Atoms

1 1 -1.6070539330015627 0.4988944040546531 0.0
2 1 -0.985891403253891 -0.42801337652809646 0.0
3 1 1.179705658422902 -0.5633519889202252 0.0
4 1 -0.5281303380742784 0.5906047790055615 0.0
5 1 0.11378202710355595 -0.2946728667189655 0.0
6 1 0.8163011207989428 0.6189302419969935 0.0
7 1 0.31111670088089494 -1.4557189918339373 0.0
