LAMMPS Description 

7 atoms
0 bonds
0 angles
0 dihedrals
0 impropers

1 atom types

-2.0 2.0 xlo xhi
-2.0 2.0 ylo yhi
-2.0 2.0 zlo zhi

Masses

1 39.948

Atoms

1 1 -1.178779487422102 -0.8656277950084126 0.0
2 1 0.9588589225664125 0.6194396910073157 0.0
3 1 1.0196780409483155 -0.5492347870063545 0.0
4 1 -0.09930503493057011 -0.16245638815078906 0.0
5 1 -0.28392258297553097 0.9779255005326144 0.0
6 1 -0.02432441030261341 -1.2570073925279794 0.0
7 1 -1.0923756150072752 0.2036333722096596 0.0
