LAMMPS Description 

7 atoms
0 bonds
0 angles
0 dihedrals
0 impropers

1 atom types

-2.0 2.0 xlo xhi
-2.0 2.0 ylo yhi
-2.0 2.0 zlo zhi

Masses

1 39.948

Atoms

1 1 -0.17738213327834584 -1.2364587154753317 0.0
2 1 0.9082009409207842 0.38092537798976117 0.0
3 1 -1.0280801781144362 0.44111106626212887 0.0
4 1 0.8610716296443806 -0.7332147111794417 0.0
5 1 -0.11342322427790029 -0.13121890396445365 0.0
6 1 -1.1319769169284033 -0.7485359302067467 0.0
7 1 -0.01858028508949063 0.9940640176300971 0.0
