LAMMPS Description 

7 atoms
0 bonds
0 angles
0 dihedrals
0 impropers

1 atom types

-2.0 2.0 xlo xhi
-2.0 2.0 ylo yhi
-2.0 2.0 zlo zhi

Masses

1 39.948

Atoms

1 1 1.1315604097109062 -0.49980922458979116 0.0
2 1 -0.4055092194799225 1.0092218557337957 0.0
3 1 -1.1156409114547423 0.1977836934092405 0.0
4 1 -1.010869745608619 -0.8881775435695859 0.0
5 1 0.16762503988640842 -1.2666700219806362 0.0
6 1 0.6204750605504714 0.6336561323655755 0.0
7 1 -0.08781080072793346 -0.21933269031256314 0.0
