LAMMPS Description 

7 atoms
0 bonds
0 angles
0 dihedrals
0 impropers

1 atom types

-2.0 2.0 xlo xhi
-2.0 2.0 ylo yhi
-2.0 2.0 zlo zhi

Masses

1 39.948

Atoms

1 1 -0.9635166883186721 -0.8850926389255924 0.0
2 1 0.6760998560842235 0.5719029124767574 0.0
3 1 0.9580325180904969 -0.5160604754389068 0.0
4 1 -1.0837051199691363 0.31329559499598547 0.0
5 1 0.10169132598624027 -1.34190455144879 0.0
6 1 -0.08814885049497194 -0.19600401781542776 0.0
7 1 -0.30062320850156915 1.0205353772120191 0.0
