LAMMPS Description 

7 atoms
0 bonds
0 angles
0 dihedrals
0 impropers

1 atom types

-2.0 2.0 xlo xhi
-2.0 2.0 ylo yhi
-2.0 2.0 zlo zhi

Masses

1 39.948

Atoms

1 1 -1.191652157095833 0.188807220661495 0.0
2 1 0.936249835591939 -0.5293532392558671 0.0
3 1 0.18679297353075966 -1.3364954063578438 0.0
4 1 -0.4028573814249298 0.9223451002386834 0.0
5 1 -0.8923285375811365 -0.8770998554007916 0.0
6 1 -0.08207473304800765 -0.12024864834016687 0.0
7 1 0.7456998329038311 0.7187170295105675 0.0
