LAMMPS Description 

7 atoms
0 bonds
0 angles
0 dihedrals
0 impropers

1 atom types

-2.0 2.0 xlo xhi
-2.0 2.0 ylo yhi
-2.0 2.0 zlo zhi

Masses

1 39.948

Atoms

1 1 -1.2281264228593902 0.022959408607602736 0.0
2 1 -0.10711249540323095 -0.19801432823086154 0.0
3 1 0.37412955330799313 -1.2138407908683468 0.0
4 1 -0.5285599603964216 0.9403782807937102 0.0
5 1 1.1000036134027933 -0.3269285422215845 0.0
6 1 -0.8497124587237759 -1.0282201236516346 0.0
7 1 0.5392080035486922 0.7703382966271639 0.0
