LAMMPS Description 

7 atoms
0 bonds
0 angles
0 dihedrals
0 impropers

1 atom types

-2.0 2.0 xlo xhi
-2.0 2.0 ylo yhi
-2.0 2.0 zlo zhi

Masses

1 39.948

Atoms

1 1 0.4988965919666589 -0.6530208029739172 0.0
2 1 -0.050907930045136454 1.2038949095992335 0.0
3 1 -0.6573792284493044 -1.0463664022675796 0.0
4 1 0.2503691162476931 -1.71310916793644 0.0
5 1 -0.26183750487922336 0.11030942111023309 0.0
6 1 0.8344449112471604 0.45093708538702804 0.0
7 1 -1.3137561232112742 0.6140271581374706 0.0
