LAMMPS Description 

7 atoms
0 bonds
0 angles
0 dihedrals
0 impropers

1 atom types

-2.0 2.0 xlo xhi
-2.0 2.0 ylo yhi
-2.0 2.0 zlo zhi

Masses

1 39.948

Atoms

1 1 -0.5407398543063952 -1.1881995902849942 0.0
2 1 0.9771124151373518 -0.0684466943352778 0.0
3 1 -0.7663150449785243 0.7602316205745342 0.0
4 1 0.6504681108069719 -1.1107628382455363 0.0
5 1 -0.13512488512463944 -0.1245122910555226 0.0
6 1 -1.2323469842567094 -0.33365192125675813 0.0
7 1 0.3467760755985188 1.0320139156595503 0.0
