LAMMPS Description 

7 atoms
0 bonds
0 angles
0 dihedrals
0 impropers

1 atom types

-2.0 2.0 xlo xhi
-2.0 2.0 ylo yhi
-2.0 2.0 zlo zhi

Masses

1 39.948

Atoms

1 1 0.33955610043490825 -1.1526070724750088 0.0
2 1 0.6044997943948084 0.809034658597795 0.0
3 1 -1.2514917731794615 0.017787424760909883 0.0
4 1 -0.7566935722241744 -1.0863657587282607 0.0
5 1 -0.12522358463881228 -0.1777673545615637 0.0
6 1 0.9858805126401934 -0.2935851868487713 0.0
7 1 -0.4966976445508956 0.8501754903109214 0.0
