LAMMPS Description 

7 atoms
0 bonds
0 angles
0 dihedrals
0 impropers

1 atom types

-2.0 2.0 xlo xhi
-2.0 2.0 ylo yhi
-2.0 2.0 zlo zhi

Masses

1 39.948

Atoms

1 1 -0.5052472383278486 -1.1904474857645448 0.0
2 1 0.3207310678632885 0.9616380499137439 0.0
3 1 1.004446090261623 -0.05286551930780261 0.0
4 1 -0.8177329998180627 0.8029179353189727 0.0
5 1 -1.2496403839864472 -0.22544479185636893 0.0
6 1 0.6476312160236628 -1.1399092869613232 0.0
7 1 -0.10035791913958769 -0.1892167002866248 0.0
