LAMMPS Description 

7 atoms
0 bonds
0 angles
0 dihedrals
0 impropers

1 atom types

-2.0 2.0 xlo xhi
-2.0 2.0 ylo yhi
-2.0 2.0 zlo zhi

Masses

1 39.948

Atoms

1 1 -0.28130007388812145 -1.1746246838032162 0.0
2 1 0.9312574170828583 0.2570484071492796 0.0
3 1 -0.9404156362078258 0.5890501936340539 0.0
4 1 0.8778789571651049 -1.0303430642730182 0.0
5 1 -0.16865363482430412 -0.12358419371629661 0.0
6 1 -1.2024317021263067 -0.5880323208980998 0.0
7 1 0.08349450567518356 1.0371578629633185 0.0
