LAMMPS Description 

7 atoms
0 bonds
0 angles
0 dihedrals
0 impropers

1 atom types

-2.0 2.0 xlo xhi
-2.0 2.0 ylo yhi
-2.0 2.0 zlo zhi

Masses

1 39.948

Atoms

1 1 -1.2399191229047735 -0.16190510012262074 0.0
2 1 0.9456124637611004 -0.12238123124549115 0.0
3 1 0.4549902446839022 -1.1751938495354948 0.0
4 1 -0.5827390057633497 0.7972398820597186 0.0
5 1 -0.6589510708701302 -1.1071104807416505 0.0
6 1 -0.10348371029457194 -0.1521597420052536 0.0
7 1 0.48432003426442777 0.8881827226468427 0.0
