LAMMPS Description 

7 atoms
0 bonds
0 angles
0 dihedrals
0 impropers

1 atom types

-2.0 2.0 xlo xhi
-2.0 2.0 ylo yhi
-2.0 2.0 zlo zhi

Masses

1 39.948

Atoms

1 1 -1.766603138861407 0.04760501413159804 0.0
2 1 -1.1155216638772314 -0.8247348756733424 0.0
3 1 1.2089872307747473 0.07957663251026993 0.0
4 1 -0.7312821261074431 0.27432897439859005 0.0
5 1 0.1535483289345654 -0.34142366182530304 0.0
6 1 0.3246595002962189 0.7774172083770435 0.0
7 1 1.226041701717117 -1.0460970908628737 0.0
