LAMMPS Description 

7 atoms
0 bonds
0 angles
0 dihedrals
0 impropers

1 atom types

-2.0 2.0 xlo xhi
-2.0 2.0 ylo yhi
-2.0 2.0 zlo zhi

Masses

1 39.948

Atoms

1 1 -1.2634866440543175 -0.40545577597412213 0.0
2 1 0.9981175460574967 0.14379389195330655 0.0
3 1 0.7433755376544114 -0.9185215250883819 0.0
4 1 -0.06295548009724715 -0.16815808252957665 0.0
5 1 0.22123933907345103 0.897471664476563 0.0
6 1 -0.4600731491906523 -1.2071058942825323 0.0
7 1 -0.8763873165664958 0.6246479225008085 0.0
