LAMMPS Description 

7 atoms
0 bonds
0 angles
0 dihedrals
0 impropers

1 atom types

-2.0 2.0 xlo xhi
-2.0 2.0 ylo yhi
-2.0 2.0 zlo zhi

Masses

1 39.948

Atoms

1 1 -0.7278195473191408 0.6826791640922514 0.0
2 1 0.6204057411867954 -1.1821046990462754 0.0
3 1 -0.6228608061428231 -1.1297911748448646 0.0
4 1 0.3626612065155248 0.918327406896572 0.0
5 1 -1.3788524421601076 -0.18166232188127635 0.0
6 1 -0.018897756507649313 -0.1476698055094397 0.0
7 1 1.0651934373040075 0.006893631349119328 0.0
