LAMMPS Description 

7 atoms
0 bonds
0 angles
0 dihedrals
0 impropers

1 atom types

-2.0 2.0 xlo xhi
-2.0 2.0 ylo yhi
-2.0 2.0 zlo zhi

Masses

1 39.948

Atoms

1 1 -0.943511534359061 0.7267251292590551 0.0
2 1 -0.052752548114004746 -0.13893559848039336 0.0
3 1 -0.4135558968770642 -1.2455087495585164 0.0
4 1 0.1407709655129712 1.015211633559163 0.0
5 1 0.7339459930489683 -1.0204573659779512 0.0
6 1 -1.1937477684232642 -0.40319082300067555 0.0
7 1 1.0286806220881193 0.03282797525537653 0.0
