LAMMPS Description 

7 atoms
0 bonds
0 angles
0 dihedrals
0 impropers

1 atom types

-2.0 2.0 xlo xhi
-2.0 2.0 ylo yhi
-2.0 2.0 zlo zhi

Masses

1 39.948

Atoms

1 1 0.35110356582670343 0.8831607273599439 0.0
2 1 -1.3072031174507404 -0.2575703707374897 0.0
3 1 -0.6561745312112237 -1.1659674441634105 0.0
4 1 0.6049869874692677 -1.0609718778162527 0.0
5 1 1.0450641548091815 -0.03943110481419348 0.0
6 1 -0.7189256502405629 0.7636179200718681 0.0
7 1 -0.0190215763260455 -0.15616564884443482 0.0
