LAMMPS Description 

7 atoms
0 bonds
0 angles
0 dihedrals
0 impropers

1 atom types

-2.0 2.0 xlo xhi
-2.0 2.0 ylo yhi
-2.0 2.0 zlo zhi

Masses

1 39.948

Atoms

1 1 -1.294542645629145 -0.13406070428371739 0.0
2 1 -0.11090967252561743 -0.14525700165214392 0.0
3 1 0.4815523994393207 -1.1398380511441697 0.0
4 1 -0.6589143131711969 0.8085096621177448 0.0
5 1 0.9932828563878776 -0.16314043237938858 0.0
6 1 -0.6847407151565813 -1.1725275829765376 0.0
7 1 0.5741019235320056 0.9129863113742693 0.0
