LAMMPS Description 

7 atoms
0 bonds
0 angles
0 dihedrals
0 impropers

1 atom types

-2.0 2.0 xlo xhi
-2.0 2.0 ylo yhi
-2.0 2.0 zlo zhi

Masses

1 39.948

Atoms

1 1 0.8332715368054361 0.6543521054829244 0.0
2 1 -0.8638215516941024 -0.7815683932361714 0.0
3 1 -1.1021984122324697 0.3060652350661839 0.0
4 1 0.7937938279658711 -0.7072966723336074 0.0
5 1 -0.36372443585075687 1.0554715809758475 0.0
6 1 -0.06972019113063178 -0.05967258830762546 0.0
7 1 0.07222905901323744 -1.5006790665914835 0.0
