LAMMPS Description 

7 atoms
0 bonds
0 angles
0 dihedrals
0 impropers

1 atom types

-2.0 2.0 xlo xhi
-2.0 2.0 ylo yhi
-2.0 2.0 zlo zhi

Masses

1 39.948

Atoms

1 1 0.6126434704072113 0.7459888491245165 0.0
2 1 -0.8791377664671812 -0.9748307807918126 0.0
3 1 -1.2492200878323627 0.059271930310219545 0.0
4 1 1.0871590067036732 -0.2928788520092464 0.0
5 1 -0.4679997834222394 0.8710016877232503 0.0
6 1 -0.07661708292199676 -0.18729008542825307 0.0
7 1 0.27300207640947005 -1.2545905478726276 0.0
