LAMMPS Description 

7 atoms
0 bonds
0 angles
0 dihedrals
0 impropers

1 atom types

-2.0 2.0 xlo xhi
-2.0 2.0 ylo yhi
-2.0 2.0 zlo zhi

Masses

1 39.948

Atoms

1 1 0.052248692102470136 1.0733337527695297 0.0
2 1 -0.21077889275205408 -1.377725463280444 0.0
3 1 -1.2473477925991396 -0.5654151008504671 0.0
4 1 0.8982349607387199 0.3509370354856892 0.0
5 1 -0.8800413146360588 0.46955649753332646 0.0
6 1 -0.07398748205644506 -0.17426772237994978 0.0
7 1 0.7615016620791379 -0.8097467982216429 0.0
