LAMMPS Description 

7 atoms
0 bonds
0 angles
0 dihedrals
0 impropers

1 atom types

-2.0 2.0 xlo xhi
-2.0 2.0 ylo yhi
-2.0 2.0 zlo zhi

Masses

1 39.948

Atoms

1 1 -1.1166901971303071 0.294880666232371 0.0
2 1 0.8856938286905655 -0.6310102702553811 0.0
3 1 -0.05893236607111401 -1.2338195108543735 0.0
4 1 -0.15054551866876262 0.9674688327362932 0.0
5 1 -1.020569780045984 -0.7844989768656446 0.0
6 1 -0.10172688484838367 -0.17577573251177436 0.0
7 1 0.8626007509505801 0.5294271925746028 0.0
