LAMMPS Description 

7 atoms
0 bonds
0 angles
0 dihedrals
0 impropers

1 atom types

-2.0 2.0 xlo xhi
-2.0 2.0 ylo yhi
-2.0 2.0 zlo zhi

Masses

1 39.948

Atoms

1 1 1.0451716847626622 0.44834317225159637 0.0
2 1 -1.131819521128147 0.47003573126109965 0.0
3 1 -1.229579883302365 -0.6355148578370848 0.0
4 1 -0.15121514601260022 -1.3049267636522408 0.0
5 1 0.9028003956252656 -0.6985655036971748 0.0
6 1 -0.009457887688370586 0.8821984165613344 0.0
7 1 -0.12606980937984227 -0.19489799383150677 0.0
