LAMMPS Description 

7 atoms
0 bonds
0 angles
0 dihedrals
0 impropers

1 atom types

-2.0 2.0 xlo xhi
-2.0 2.0 ylo yhi
-2.0 2.0 zlo zhi

Masses

1 39.948

Atoms

1 1 -0.6803953984950999 0.8780269110173154 0.0
2 1 0.5026710526260689 -1.0868930745830012 0.0
3 1 -0.6260443187142649 -1.228069638047625 0.0
4 1 0.4668834263071017 0.8994010842828352 0.0
5 1 -1.3407778776614454 -0.35791315406857427 0.0
6 1 -0.08693378235478517 -0.16187120122645846 0.0
7 1 1.0644267311690618 0.023991273681540984 0.0
