LAMMPS Description 

7 atoms
0 bonds
0 angles
0 dihedrals
0 impropers

1 atom types

-2.0 2.0 xlo xhi
-2.0 2.0 ylo yhi
-2.0 2.0 zlo zhi

Masses

1 39.948

Atoms

1 1 -0.8743958841785449 -0.9763996492329681 0.0
2 1 0.6132554239119681 0.697657673575488 0.0
3 1 0.9713173576965655 -0.40793944008121147 0.0
4 1 -0.03911079464687859 -0.19363522373018968 0.0
5 1 -0.48156108848889184 0.9806404817091412 0.0
6 1 0.1934234252037262 -1.2267788493039238 0.0
7 1 -1.0830986066212653 0.09312720811969372 0.0
