LAMMPS Description 

7 atoms
0 bonds
0 angles
0 dihedrals
0 impropers

1 atom types

-2.0 2.0 xlo xhi
-2.0 2.0 ylo yhi
-2.0 2.0 zlo zhi

Masses

1 39.948

Atoms

1 1 -0.5704216233132776 0.7266620687210777 0.0
2 1 0.8538982872277223 -0.5529068866531489 0.0
3 1 -0.0132282285015172 -1.4728967986337966 0.0
4 1 0.10983475494837293 1.5460043161851083 0.0
5 1 -1.0878198232114962 -1.392813091354715 0.0
6 1 -0.4531193858439346 -0.3934431886765481 0.0
7 1 0.46068585157077824 0.5060657814680487 0.0
