LAMMPS Description 

7 atoms
0 bonds
0 angles
0 dihedrals
0 impropers

1 atom types

-2.0 2.0 xlo xhi
-2.0 2.0 ylo yhi
-2.0 2.0 zlo zhi

Masses

1 39.948

Atoms

1 1 0.9476464458192674 -0.8091649048065211 0.0
2 1 -0.10762472172945048 0.9147125493457504 0.0
3 1 -1.1506256737488476 0.5632993004016157 0.0
4 1 -1.100284163148339 -0.5802287944867985 0.0
5 1 -0.28021978468008807 -1.321464624603218 0.0
6 1 1.0217230142049092 0.4130288686180096 0.0
7 1 -0.030785283840886957 -0.21351019341280203 0.0
