LAMMPS Description 

7 atoms
0 bonds
0 angles
0 dihedrals
0 impropers

1 atom types

-2.0 2.0 xlo xhi
-2.0 2.0 ylo yhi
-2.0 2.0 zlo zhi

Masses

1 39.948

Atoms

1 1 -1.114932220960134 -0.6504795810588002 0.0
2 1 0.9075993684000655 0.3750192898100157 0.0
3 1 0.8149678277571465 -0.7012047610795519 0.0
4 1 -0.11539464190791449 -0.19370328427564648 0.0
5 1 -0.06273171536040105 0.9861595246405167 0.0
6 1 -0.13930624931802366 -1.2825046615979065 0.0
7 1 -0.9903725357340989 0.4333856746174461 0.0
