LAMMPS Description 

7 atoms
0 bonds
0 angles
0 dihedrals
0 impropers

1 atom types

-2.0 2.0 xlo xhi
-2.0 2.0 ylo yhi
-2.0 2.0 zlo zhi

Masses

1 39.948

Atoms

1 1 -0.5868814926596885 0.950958995180283 0.0
2 1 -0.0988584662608433 -0.11759290716982841 0.0
3 1 -0.7762538827514764 -0.9615098736624742 0.0
4 1 0.5550364587369856 0.7401340149741527 0.0
5 1 0.2880251267016737 -1.2535156961512346 0.0
6 1 -1.1953165975400333 0.003806706484048402 0.0
7 1 1.1140786866500494 -0.3956090385989206 0.0
