LAMMPS Description 

7 atoms
0 bonds
0 angles
0 dihedrals
0 impropers

1 atom types

-2.0 2.0 xlo xhi
-2.0 2.0 ylo yhi
-2.0 2.0 zlo zhi

Masses

1 39.948

Atoms

1 1 -1.012003392201289 0.6228562504332852 0.0
2 1 -0.09406053599119249 -0.11107190495678632 0.0
3 1 -0.3192080278271195 -1.307910109888429 0.0
4 1 0.09131895626989793 0.9571124893889855 0.0
5 1 0.7162829137842095 -0.8782137091314839 0.0
6 1 -1.113127366820544 -0.5430994320572 0.0
7 1 1.0306272856626846 0.22699861726767578 0.0
