LAMMPS Description 

7 atoms
0 bonds
0 angles
0 dihedrals
0 impropers

1 atom types

-2.0 2.0 xlo xhi
-2.0 2.0 ylo yhi
-2.0 2.0 zlo zhi

Masses

1 39.948

Atoms

1 1 -1.546270529385847 -0.880009319456642 0.0
2 1 1.3657120156542477 -0.3164681802451972 0.0
3 1 -0.22642872489464844 0.8632572521621859 0.0
4 1 -0.41775483148581555 -1.200978649528903 0.0
5 1 0.15935358414087 -0.2051132025281668 0.0
6 1 -0.9627299687805725 0.014490434495303147 0.0
7 1 0.9279482876283368 0.6914938661573963 0.0
