LAMMPS Description 

7 atoms
0 bonds
0 angles
0 dihedrals
0 impropers

1 atom types

-2.0 2.0 xlo xhi
-2.0 2.0 ylo yhi
-2.0 2.0 zlo zhi

Masses

1 39.948

Atoms

1 1 0.01989445473590403 -1.3021445073006335 0.0
2 1 0.7882569984548478 0.549837320975169 0.0
3 1 -1.155081777414068 0.2747428737607663 0.0
4 1 0.9590291748743508 -0.6232849943936545 0.0
5 1 -0.0674814236945926 -0.17227761000943495 0.0
6 1 -1.0363553594742145 -0.7930280504193781 0.0
7 1 -0.20843223460565086 1.0328271684431514 0.0
