LAMMPS Description 

7 atoms
0 bonds
0 angles
0 dihedrals
0 impropers

1 atom types

-2.0 2.0 xlo xhi
-2.0 2.0 ylo yhi
-2.0 2.0 zlo zhi

Masses

1 39.948

Atoms

1 1 0.6891564269490428 0.251006332943757 0.0
2 1 1.082353008101238 1.3054646120195297 0.0
3 1 -1.0870160086361529 -1.3832112686136113 0.0
4 1 -0.33020805536404124 -0.6397617251199446 0.0
5 1 -0.4204955319891606 0.5377100799732061 0.0
6 1 0.6926616636030152 -0.8815451389723467 0.0
7 1 -1.3266216697873663 -0.222990691174566 0.0
