LAMMPS Description 

7 atoms
0 bonds
0 angles
0 dihedrals
0 impropers

1 atom types

-2.0 2.0 xlo xhi
-2.0 2.0 ylo yhi
-2.0 2.0 zlo zhi

Masses

1 39.948

Atoms

1 1 -0.9038418706579232 0.780485319709732 0.0
2 1 0.6231085443025002 -1.061307758237703 0.0
3 1 -0.5473286516413316 -1.2534734622617212 0.0
4 1 0.3140823535874788 0.8930146032452435 0.0
5 1 -1.2245649754815555 -0.3118127317152901 0.0
6 1 -0.018108401123612602 -0.1331299974807848 0.0
7 1 1.0564828338910373 0.052896227796617984 0.0
