LAMMPS data file via write_data, version 29 Oct 2020, timestep = 238000

7 atoms
1 atom types

-5.0 5.0 xlo xhi
-5.0 5.0 ylo yhi
-5.0 5.0 zlo zhi

Masses

1 1

Atoms # atomic

1 1 0.04043579962762915 -1.2137698502340502 0.0 0 0 0
5 1 -1.1842842743653863 0.420252727753168 0.0 0 0 0
6 1 -1.0589865143090995 -0.7344724464513798 0.0 0 0 0
7 1 -0.15102326305869837 -0.1323168777433537 0.0 0 0 0
2 1 1.0211455047488434 -0.7413318947170938 0.0 0 0 0
3 1 0.8331655665829131 0.3883854062230985 0.0 0 0 0
4 1 -0.20062298636869022 0.9799251362406746 0.0 0 0 0

Velocities

1 -0.17741955986784796 -0.3094201393125537 0.0
5 -0.18477422865723914 -0.3624523116628829 0.0
6 -0.04469252564616541 0.861868992349782 0.0
7 0.583142620659855 -0.2753994212853511 0.0
2 0.24185801532827586 -0.7089151850082772 0.0
3 0.19072502608973305 0.7053340309101745 0.0
4 -0.6088393479066031 0.08898403400909956 0.0
