LAMMPS data file via write_data, version 29 Oct 2020, timestep = 85000

7 atoms
1 atom types

-5.0 5.0 xlo xhi
-5.0 5.0 ylo yhi
-5.0 5.0 zlo zhi

Masses

1 1

Atoms # atomic

1 1 -0.11541408381485191 -1.4045797679781111 0.0 0 0 0
5 1 -1.546909924325449 0.40065278728432246 0.0 0 0 0
6 1 -0.8470450867879943 -0.5110207953049223 0.0 0 0 0
3 1 0.6896462972659964 0.5797381831762666 0.0 0 0 0
7 1 0.22360270357190962 -0.3731155156670466 0.0 0 0 0
4 1 -0.41546603879358385 0.6288221167344074 0.0 0 0 0
2 1 1.3114159657551983 -0.3538248071873889 0.0 0 0 0

Velocities

1 -0.3364806175061634 -0.1453590703159522 0.0
5 0.6217122753755437 0.10755521858705505 0.0
6 0.3201743750234944 -0.06481903271385223 0.0
3 0.043405451359163696 -0.05363808038153958 0.0
7 0.05088942438514489 -0.2570251664406738 0.0
4 -0.17958490659814128 -0.1636115892678758 0.0
2 -0.5201160020390543 0.5768977205328373 0.0
