LAMMPS data file via write_data, version 29 Oct 2020, timestep = 690000

7 atoms
1 atom types

-5.0 5.0 xlo xhi
-5.0 5.0 ylo yhi
-5.0 5.0 zlo zhi

Masses

1 1

Atoms # atomic

2 1 0.4545980042259723 -1.1479187270495101 0.0 0 0 0
1 1 -0.6632961113854263 -1.1774074096512752 0.0 0 0 0
6 1 -1.2298081821259281 -0.12000630880402462 0.0 0 0 0
5 1 -0.693625135357005 0.9050398539265534 0.0 0 0 0
7 1 -0.12873494550541784 -0.23950152070916897 0.0 0 0 0
4 1 0.48326540066408963 0.832584512550901 0.0 0 0 0
3 1 1.0774308027487953 -0.08611819925070929 0.0 0 0 0

Velocities

2 -0.3059472857264789 0.5348403482225109 0.0
1 0.2370602268122956 0.20009411433134683 0.0
6 -0.08934453788853067 -0.6759574217374084 0.0
5 0.10187393991437238 0.4622453431432459 0.0
7 -0.07496872265087687 -0.4912081126609089 0.0
4 0.6087071884204223 -0.14960224172226108 0.0
3 -0.4773808088810258 0.11958797042345201 0.0
