LAMMPS data file via write_data, version 29 Oct 2020, timestep = 663000

7 atoms
1 atom types

-5.0 5.0 xlo xhi
-5.0 5.0 ylo yhi
-5.0 5.0 zlo zhi

Masses

1 1

Atoms # atomic

1 1 -0.4433487638302862 -1.411513745821061 0.0 0 0 0
2 1 0.6096831348123806 -0.9708938107940935 0.0 0 0 0
6 1 -1.2631338489637314 -0.3779784355667752 0.0 0 0 0
5 1 -0.7397921323430843 0.7143100741157127 0.0 0 0 0
7 1 -0.12002952189433758 -0.17269106423963432 0.0 0 0 0
4 1 0.2911468311998069 1.0245426848174835 0.0 0 0 0
3 1 0.9653041342444231 0.16089649850201052 0.0 0 0 0

Velocities

1 -0.2739749831525606 -0.35732813609332603 0.0
2 -0.08812185381595769 0.12825610294051165 0.0
6 -0.3621005120660941 -0.4266907250041171 0.0
5 0.12230395983242343 0.12776124310590356 0.0
7 -0.017697733947302403 0.08647224414110233 0.0
4 -0.13679851119377348 0.6167578236154194 0.0
3 0.756389634343401 -0.17522855270548873 0.0
