LAMMPS data file via write_data, version 29 Oct 2020, timestep = 167000

7 atoms
1 atom types

-5.0 5.0 xlo xhi
-5.0 5.0 ylo yhi
-5.0 5.0 zlo zhi

Masses

1 1

Atoms # atomic

1 1 -0.1769002918807231 -1.2993109486733114 0.0 0 0 0
6 1 -1.0521510875151998 -0.59351033796231 0.0 0 0 0
5 1 -1.2293747703741913 0.4933370785182836 0.0 0 0 0
7 1 0.07012038497408288 -0.16059517368853943 0.0 0 0 0
2 1 0.891395692600238 -0.8487126113583405 0.0 0 0 0
4 1 -0.15351204972525198 0.9004325004359688 0.0 0 0 0
3 1 0.9502519547808322 0.4750316937897448 0.0 0 0 0

Velocities

1 -0.06617253980219322 0.5937389996479335 0.0
6 -0.148233040847029 -0.12314885469352409 0.0
5 -0.08328924910409082 -0.2914106720712859 0.0
7 0.054032422345745686 0.38239256425213447 0.0
2 0.47813616696536093 -0.3783329332752014 0.0
4 -0.21462380735039976 0.34657014711377554 0.0
3 -0.01984995220741133 -0.5298092509738166 0.0
