LAMMPS data file via write_data, version 29 Oct 2020, timestep = 104000

7 atoms
1 atom types

-5.0 5.0 xlo xhi
-5.0 5.0 ylo yhi
-5.0 5.0 zlo zhi

Masses

1 1

Atoms # atomic

1 1 0.06864368291359832 -1.2766252305042884 0.0 0 0 0
5 1 -1.2115030591549223 0.3195250009161779 0.0 0 0 0
6 1 -1.0085352789291342 -0.8107818268950744 0.0 0 0 0
3 1 0.8189869456064246 0.4986264266425954 0.0 0 0 0
7 1 -0.09622257770182711 -0.13873990047624601 0.0 0 0 0
2 1 1.0200102772701205 -0.6326022007355994 0.0 0 0 0
4 1 -0.29155015713597676 1.0072699321092042 0.0 0 0 0

Velocities

1 0.05687171388133533 -0.5267771360735513 0.0
5 -0.15674060596772796 0.35521783286513736 0.0
6 -0.9869671857532581 -0.21207834330379782 0.0
3 0.6274600545082635 0.3828534571965864 0.0
7 -0.41316489834564135 -0.3239709795321682 0.0
2 0.8000631678786502 0.4705679088669122 0.0
4 0.0724777537983584 -0.14581274001911798 0.0
