LAMMPS data file via write_data, version 29 Oct 2020, timestep = 827000

7 atoms
1 atom types

-5.0 5.0 xlo xhi
-5.0 5.0 ylo yhi
-5.0 5.0 zlo zhi

Masses

1 1

Atoms # atomic

2 1 0.40480248066946317 -1.2894124261021143 0.0 0 0 0
1 1 -0.7527402753675727 -0.9926504119322438 0.0 0 0 0
6 1 -1.1736706643051151 -0.046431124452248965 0.0 0 0 0
7 1 -0.11618525578330924 -0.13333853776353477 0.0 0 0 0
4 1 0.5521213189154562 0.7892337389822401 0.0 0 0 0
5 1 -0.6321316528621843 0.9109738653527695 0.0 0 0 0
3 1 1.0176338822328643 -0.2717029030534447 0.0 0 0 0

Velocities

2 0.27150220098011874 0.07525421108873373 0.0
1 -0.05069968712236543 0.026722004419010223 0.0
6 -0.15879595311676364 0.315797828510517 0.0
7 0.6195480872441983 0.28180306631936347 0.0
4 0.09558290568465592 0.1293085865137623 0.0
5 -0.8076995880315776 -0.07364454096907849 0.0
3 0.030562034361900334 -0.7552411558822977 0.0
