LAMMPS data file via write_data, version 29 Oct 2020, timestep = 996000

7 atoms
1 atom types

-5.0 5.0 xlo xhi
-5.0 5.0 ylo yhi
-5.0 5.0 zlo zhi

Masses

1 1

Atoms # atomic

2 1 0.33219331042350075 -1.298382165765957 0.0 0 0 0
1 1 -0.8776796123216402 -1.0527473480393796 0.0 0 0 0
6 1 -1.2053747438701887 0.05258105459387482 0.0 0 0 0
7 1 -0.10344670877632842 -0.2187933128423643 0.0 0 0 0
4 1 0.5682913730694721 0.6846851578052313 0.0 0 0 0
5 1 -0.45534670123455 1.1783785015628947 0.0 0 0 0
3 1 1.041192916543037 -0.3790496863210652 0.0 0 0 0

Velocities

2 -0.07508909487832875 0.15962695645191174 0.0
1 -0.08747139302221264 0.8238203048560127 0.0
6 0.15562322878290932 -0.5841251859042869 0.0
7 0.17249678988188827 -0.07784260152434043 0.0
4 0.29883092175704207 -0.07899521107729686 0.0
5 -0.1495405622909073 -0.376201827052272 0.0
3 -0.31484989023019516 0.13371756425021514 0.0
