LAMMPS data file via write_data, version 29 Oct 2020, timestep = 314000

7 atoms
1 atom types

-5.0 5.0 xlo xhi
-5.0 5.0 ylo yhi
-5.0 5.0 zlo zhi

Masses

1 1

Atoms # atomic

1 1 -0.02285253981771794 -1.291642106537649 0.0 0 0 0
5 1 -0.9907810356059216 0.35666818422183555 0.0 0 0 0
6 1 -1.148835946585858 -0.7114171720694911 0.0 0 0 0
7 1 -0.06796570743111922 -0.16504741183016242 0.0 0 0 0
3 1 0.8435051004807688 0.3809241493841739 0.0 0 0 0
2 1 0.8627290223175313 -0.6668658258192821 0.0 0 0 0
4 1 -0.17596906048570776 1.0640523836952431 0.0 0 0 0

Velocities

1 -0.5157596815332908 -0.022955471303997454 0.0
5 -0.020134200497888992 0.08209399190907407 0.0
6 -0.3112689087159001 -0.17452240881365108 0.0
7 0.3101337744988089 0.06003713662708386 0.0
3 0.4240605288465782 0.0023949367446419595 0.0
2 0.2966427771723317 0.4709925238834586 0.0
4 -0.18367428977061223 -0.41804070904664137 0.0
