LAMMPS data file via write_data, version 29 Oct 2020, timestep = 984000

7 atoms
1 atom types

-5.0 5.0 xlo xhi
-5.0 5.0 ylo yhi
-5.0 5.0 zlo zhi

Masses

1 1

Atoms # atomic

2 1 0.0676281141006659 -1.2687253890823986 0.0 0 0 0
6 1 -1.633415139292074 0.3004315753437524 0.0 0 0 0
1 1 -0.7511153963950478 -0.489327770077922 0.0 0 0 0
7 1 0.31801929678723967 -0.16999236802093262 0.0 0 0 0
5 1 -0.5011269223970268 0.5798836492301669 0.0 0 0 0
4 1 0.6254737606183867 0.8694774144295842 0.0 0 0 0
3 1 1.1743661203872908 -0.8550749108235169 0.0 0 0 0

Velocities

2 -0.7465786613799875 0.7547334804381726 0.0
6 0.21287346219294123 -0.02312610186186397 0.0
1 0.32375882078526674 -0.4956927152129779 0.0
7 0.294603179704538 -0.39008374342734375 0.0
5 -0.030616588231048972 0.09538890088270009 0.0
4 -0.2853595014874879 0.03520141194035606 0.0
3 0.23131928841598154 0.02357876724091136 0.0
