LAMMPS data file via write_data, version 29 Oct 2020, timestep = 275000

7 atoms
1 atom types

-5.0 5.0 xlo xhi
-5.0 5.0 ylo yhi
-5.0 5.0 zlo zhi

Masses

1 1

Atoms # atomic

1 1 -0.11878342338854356 -1.2786793336698523 0.0 0 0 0
5 1 -1.0735380806342103 0.4812987004699906 0.0 0 0 0
6 1 -1.1239384431158483 -0.7133769294124725 0.0 0 0 0
7 1 -0.1100952740078002 -0.11687311661127474 0.0 0 0 0
3 1 0.8569752638162871 0.32504891795219476 0.0 0 0 0
2 1 0.883217430349561 -0.7362513929964541 0.0 0 0 0
4 1 -0.014007640155632132 1.0055053553275595 0.0 0 0 0

Velocities

1 0.39855660337516646 -0.6176423620607764 0.0
5 0.5216559185623993 -0.45635115777216045 0.0
6 -0.014772234370036101 0.7033398791457506 0.0
7 -0.1799948027643814 -0.09651595347467108 0.0
3 -0.5135813260514099 -0.4530141904289599 0.0
2 0.064531884052356 -0.11326832373926377 0.0
4 -0.27639604280407454 1.0334521083300248 0.0
