LAMMPS data file via write_data, version 29 Oct 2020, timestep = 92000

7 atoms
1 atom types

-5.0 5.0 xlo xhi
-5.0 5.0 ylo yhi
-5.0 5.0 zlo zhi

Masses

1 1

Atoms # atomic

5 1 -1.5174073175359142 0.12278209064568932 0.0 0 0 0
1 1 0.2281732815425071 -0.843709936468572 0.0 0 0 0
6 1 -0.952404335173489 -0.9362028895093625 0.0 0 0 0
3 1 0.6467417576895232 0.17059962356910338 0.0 0 0 0
7 1 -0.41223124461911503 0.06730810018122389 0.0 0 0 0
2 1 1.2855047700935414 -0.6924291033722614 0.0 0 0 0
4 1 0.021452920872987818 1.0783243160113773 0.0 0 0 0

Velocities

5 -0.22963216571990822 0.5093612506190086 0.0
1 0.36875125303313483 -0.31411615244614105 0.0
6 0.4531447267074889 0.18284131239820128 0.0
3 -0.4238136323082759 -0.0594670993515373 0.0
7 -0.0911291631870973 0.03878008883625916 0.0
2 -0.1016812626032691 0.265435044147177 0.0
4 0.024360244077910456 -0.6228344442029723 0.0
