LAMMPS data file via write_data, version 29 Oct 2020, timestep = 88000

7 atoms
1 atom types

-5.0 5.0 xlo xhi
-5.0 5.0 ylo yhi
-5.0 5.0 zlo zhi

Masses

1 1

Atoms # atomic

1 1 0.15683741226497694 -1.3143907026181103 0.0 0 0 0
5 1 -1.2154516288210004 0.32568565402817795 0.0 0 0 0
6 1 -0.9782402982845709 -0.7928490929663555 0.0 0 0 0
3 1 0.7520703987003118 0.47939406895199266 0.0 0 0 0
7 1 -0.05292945813312471 -0.18946230144002946 0.0 0 0 0
4 1 -0.348728436624309 0.9998749841244454 0.0 0 0 0
2 1 0.9862718437684738 -0.5415804090227335 0.0 0 0 0

Velocities

1 0.07468879161232587 0.08457281037309763 0.0
5 -0.2991681806837011 0.060559129202559875 0.0
6 -0.08274069419251562 -0.678547979308048 0.0
3 0.3143408806069726 0.23425344417594937 0.0
7 -0.5142082866530033 -0.25108347403486025 0.0
4 0.63203653239217 0.3879084637140906 0.0
2 -0.1249490430822658 0.16233760587720342 0.0
