LAMMPS data file via write_data, version 29 Oct 2020, timestep = 887000

7 atoms
1 atom types

-5.0 5.0 xlo xhi
-5.0 5.0 ylo yhi
-5.0 5.0 zlo zhi

Masses

1 1

Atoms # atomic

6 1 -0.44426245337203535 -1.2181945697275791 0.0 0 0 0
5 1 -1.232754906134234 -0.39923487444870615 0.0 0 0 0
1 1 0.6645226051752907 -0.972697943650561 0.0 0 0 0
7 1 -1.0082395710618877 0.6980758228158501 0.0 0 0 0
2 1 -0.10454762254101393 -0.1827407948698648 0.0 0 0 0
4 1 0.33354357137575985 0.9967023363056465 0.0 0 0 0
3 1 1.091568209682565 0.044762224213513294 0.0 0 0 0

Velocities

6 0.3391355495958382 -0.3863198963705004 0.0
5 -0.49934500470184284 -0.09482401110663405 0.0
1 0.44982995447275603 -0.09578249051297473 0.0
7 0.43429921355956563 0.37525147093974665 0.0
2 -0.48959407503995567 0.052024519272186646 0.0
4 -0.0357189899993424 0.40581565709633266 0.0
3 -0.19860664788693366 -0.2561652493181937 0.0
