LAMMPS data file via write_data, version 29 Oct 2020, timestep = 618000

7 atoms
1 atom types

-5.0 5.0 xlo xhi
-5.0 5.0 ylo yhi
-5.0 5.0 zlo zhi

Masses

1 1

Atoms # atomic

6 1 -0.4078611806220857 -1.2428316600913427 0.0 0 0 0
5 1 -1.1998734621648697 -0.42094985561373655 0.0 0 0 0
1 1 0.6461846052693717 -0.9925452638579707 0.0 0 0 0
2 1 -0.06099158950858951 -0.10807276895063427 0.0 0 0 0
7 1 -0.9196413987621451 0.6533803476389892 0.0 0 0 0
3 1 1.04217732288035 0.16133074042312337 0.0 0 0 0
4 1 0.19983553577513608 0.916360661213532 0.0 0 0 0

Velocities

6 0.9035217561996249 0.216502831906173 0.0
5 0.29955733731161843 0.757351291754298 0.0
1 -0.6543449715835589 -0.7220382684486676 0.0
2 -0.17585691887032712 0.05741408782960678 0.0
7 -0.16774244620458034 -0.4387831738361571 0.0
3 -0.3606749780337936 0.5127131861477109 0.0
4 0.15554022118109476 -0.3831599553530851 0.0
