LAMMPS data file via write_data, version 29 Oct 2020, timestep = 254000

7 atoms
1 atom types

-5.0 5.0 xlo xhi
-5.0 5.0 ylo yhi
-5.0 5.0 zlo zhi

Masses

1 1

Atoms # atomic

1 1 0.019905331602610276 -1.2371226991951736 0.0 0 0 0
5 1 -1.0792737819570613 0.33569491951049896 0.0 0 0 0
6 1 -1.0303364782800084 -0.9008294514465578 0.0 0 0 0
3 1 0.7429636741496328 0.5161220018542344 0.0 0 0 0
7 1 -0.09635958346483603 -0.1884042982282894 0.0 0 0 0
4 1 -0.21399108819790552 1.0455189012577046 0.0 0 0 0
2 1 0.9569217589648865 -0.6043071727644492 0.0 0 0 0

Velocities

1 0.44136016878125545 -0.28988318064401497 0.0
5 -0.10465863846465778 0.15248854184142074 0.0
6 -1.0665733609706276 -0.7635338899968768 0.0
3 0.02024105218174716 -0.11957813030809063 0.0
7 -0.261263034751306 0.6478011822326847 0.0
4 0.49942774974472004 0.12397526969069037 0.0
2 0.4714660634788541 0.24873020718416763 0.0
