LAMMPS data file via write_data, version 29 Oct 2020, timestep = 126000

7 atoms
1 atom types

-5.0 5.0 xlo xhi
-5.0 5.0 ylo yhi
-5.0 5.0 zlo zhi

Masses

1 1

Atoms # atomic

1 1 -0.036104621082536446 -1.375435254574014 0.0 0 0 0
5 1 -1.0849799456826674 0.26386148077114446 0.0 0 0 0
6 1 -0.964461457357271 -0.8175268964674725 0.0 0 0 0
3 1 0.7985796957112217 0.6539039372721148 0.0 0 0 0
7 1 -0.07544386917801266 -0.10034723497564955 0.0 0 0 0
2 1 0.8914325354605859 -0.6253941009128755 0.0 0 0 0
4 1 -0.22919250502109267 0.9676102699310656 0.0 0 0 0

Velocities

1 0.4090353982706489 0.23670093805250733 0.0
5 0.4648502234990307 -0.2651874792602291 0.0
6 -0.2527298395930219 -0.08199023832444999 0.0
3 -0.024813605637927477 -0.4422734539143542 0.0
7 0.28507401830252094 0.557452321829784 0.0
2 -0.2569077678268236 -0.6120340781056006 0.0
4 -0.6245084270144593 0.6073319897223057 0.0
