LAMMPS data file via write_data, version 29 Oct 2020, timestep = 418000

7 atoms
1 atom types

-5.0 5.0 xlo xhi
-5.0 5.0 ylo yhi
-5.0 5.0 zlo zhi

Masses

1 1

Atoms # atomic

6 1 -0.3792371444378574 -1.2324494973429934 0.0 0 0 0
5 1 -1.234897351217055 -0.562895043563443 0.0 0 0 0
7 1 -0.8395643283236413 0.6817568553818688 0.0 0 0 0
1 1 0.7009820462386787 -0.957978523247759 0.0 0 0 0
2 1 -0.13571132212404 -0.1278346423169971 0.0 0 0 0
4 1 0.20711373041120998 0.9221158578928291 0.0 0 0 0
3 1 0.9811442022552465 0.24395719411073447 0.0 0 0 0

Velocities

6 0.22583735356927417 0.1380689071003788 0.0
5 0.2850266775753574 -0.11487565707677419 0.0
7 0.4076433907600745 -0.3583077870416867 0.0
1 -0.11616065054382943 -0.0038450651368997432 0.0
2 -0.5385232341239394 0.46644477327095746 0.0
4 0.4033619081758242 -0.03772560439347133 0.0
3 -0.6671854454127635 -0.0897595667225643 0.0
