LAMMPS data file via write_data, version 29 Oct 2020, timestep = 114000

7 atoms
1 atom types

-5.0 5.0 xlo xhi
-5.0 5.0 ylo yhi
-5.0 5.0 zlo zhi

Masses

1 1

Atoms # atomic

1 1 0.15222582620846645 -1.2786721837901898 0.0 0 0 0
6 1 -0.8749527497872002 -0.9651412091298607 0.0 0 0 0
5 1 -1.279171849583245 0.1565185930847919 0.0 0 0 0
3 1 0.8443230763351803 0.7022336480588346 0.0 0 0 0
7 1 -0.05055440881466409 -0.18556980738590584 0.0 0 0 0
4 1 -0.4818873211923581 0.9838962777984991 0.0 0 0 0
2 1 0.9898472596881721 -0.4465931175894415 0.0 0 0 0

Velocities

1 -0.0292830019453863 -0.003403955922867655 0.0
6 0.12011855145699862 0.27042394969969485 0.0
5 0.4869054473842009 -0.24901993661528085 0.0
3 -0.5327915153466762 -0.023674741411580602 0.0
7 -0.08589408821565117 0.48644273290688433 0.0
4 0.1940134524153825 -0.2295390275900783 0.0
2 -0.1530688457489115 -0.25122902106678513 0.0
