LAMMPS data file via write_data, version 29 Oct 2020, timestep = 100000

7 atoms
1 atom types

-5.0 5.0 xlo xhi
-5.0 5.0 ylo yhi
-5.0 5.0 zlo zhi

Masses

1 1

Atoms # atomic

1 1 0.32174525262973863 -1.3245271460301367 0.0 0 0 0
5 1 -1.1817968901439921 0.11457972391484977 0.0 0 0 0
6 1 -0.7813078150596148 -1.0793866071810205 0.0 0 0 0
3 1 0.7068717501516473 0.7345418141445526 0.0 0 0 0
7 1 -0.158851519573885 -0.12795376520763466 0.0 0 0 0
4 1 -0.4452303274361299 0.9950465873736806 0.0 0 0 0
2 1 0.8383993822920387 -0.3456284059656038 0.0 0 0 0

Velocities

1 -0.3497028333300251 0.34802477408033344 0.0
5 0.055794326301651945 0.06261106951187902 0.0
6 0.16420526755867457 0.052634675576751826 0.0
3 0.1366944151195603 0.2264550412683868 0.0
7 -0.18525927764299133 0.2154082319759792 0.0
4 0.04045025325388956 -0.8142693538744948 0.0
2 0.1378178487392086 -0.0908644385388475 0.0
