LAMMPS data file via write_data, version 29 Oct 2020, timestep = 403000

7 atoms
1 atom types

-5.0 5.0 xlo xhi
-5.0 5.0 ylo yhi
-5.0 5.0 zlo zhi

Masses

1 1

Atoms # atomic

6 1 -0.28485683139544804 -1.2628570661075627 0.0 0 0 0
1 1 0.764829276257268 -0.8514978591236698 0.0 0 0 0
5 1 -1.1789248486171084 -0.5495865283962726 0.0 0 0 0
7 1 -0.92376799507238 0.6083005851053593 0.0 0 0 0
2 1 -0.17995966235707767 -0.15565706435509538 0.0 0 0 0
3 1 0.9431105893636277 0.16792414637710695 0.0 0 0 0
4 1 0.15939930462373586 1.0100459874239047 0.0 0 0 0

Velocities

6 0.5606388969918898 -0.1291289784982464 0.0
1 -0.6311613348063156 0.03057991194252558 0.0
5 -0.20136143407328402 0.6541063064770598 0.0
7 -0.42032981045550755 -0.45535008917870234 0.0
2 -0.2369219190280524 -0.21807757432673125 0.0
3 0.5846752439157373 0.5099886802006787 0.0
4 0.3444603574555329 -0.3921182566166419 0.0
