LAMMPS data file via write_data, version 29 Oct 2020, timestep = 990000

7 atoms
1 atom types

-5.0 5.0 xlo xhi
-5.0 5.0 ylo yhi
-5.0 5.0 zlo zhi

Masses

1 1

Atoms # atomic

6 1 0.23951385486256965 -1.5599939290970577 0.0 0 0 0
5 1 -1.4657358824082003 -0.40392050927578504 0.0 0 0 0
7 1 -0.6318899229013692 0.4788964837486379 0.0 0 0 0
1 1 0.8654229724997211 -0.6798724316894065 0.0 0 0 0
2 1 -0.3078758622418238 -0.6054235805327989 0.0 0 0 0
3 1 0.459169741982016 0.35158708910920194 0.0 0 0 0
4 1 0.1412249314155395 1.3853990783178982 0.0 0 0 0

Velocities

6 0.18721928605544386 0.051624996219598665 0.0
5 -0.24025128626003212 -0.10726617164428175 0.0
7 -0.24586652703955048 0.014763137240645945 0.0
1 -0.2208121234819914 0.07861124034185692 0.0
2 0.12142500985733375 0.4895350234566531 0.0
3 0.4749101379806863 -0.5612562257892738 0.0
4 -0.0766244971118234 0.033988000174737645 0.0
