LAMMPS data file via write_data, version 29 Oct 2020, timestep = 111000

7 atoms
1 atom types

-5.0 5.0 xlo xhi
-5.0 5.0 ylo yhi
-5.0 5.0 zlo zhi

Masses

1 1

Atoms # atomic

1 1 0.17027589156570813 -1.3437893362636713 0.0 0 0 0
5 1 -1.3011949443126716 0.2450135500668767 0.0 0 0 0
6 1 -0.8650681015031223 -1.0102729696433046 0.0 0 0 0
3 1 0.7163735539508422 0.7024994164372198 0.0 0 0 0
7 1 -0.06261715021103781 -0.154989000030298 0.0 0 0 0
4 1 -0.44355044285819284 0.9307726035294343 0.0 0 0 0
2 1 1.085611026224142 -0.4025620630489934 0.0 0 0 0

Velocities

1 0.030301896053154944 -0.35607753654903773 0.0
5 -0.08498899470289842 -0.6311677708810873 0.0
6 -0.13018896327671742 0.4010351374714053 0.0
3 0.007038125905124879 0.19784064698659254 0.0
7 -0.014880908115100754 0.22045437925557482 0.0
4 0.4591811092900045 0.073267134317217 0.0
2 -0.2664622651536127 0.0946480093993166 0.0
