LAMMPS data file via write_data, version 29 Oct 2020, timestep = 22000

7 atoms
1 atom types

-5.0 5.0 xlo xhi
-5.0 5.0 ylo yhi
-5.0 5.0 zlo zhi

Masses

1 1

Atoms # atomic

1 1 0.19893659926368623 -1.2288537611643455 0.0 0 0 0
5 1 -1.2305367113114818 0.1666544268175731 0.0 0 0 0
6 1 -0.9758853123402907 -0.9588444310753507 0.0 0 0 0
3 1 0.7106654727725813 0.7007180352758684 0.0 0 0 0
7 1 -0.055478187724624775 -0.16330369454508833 0.0 0 0 0
2 1 1.0441697281373343 -0.5162921404683112 0.0 0 0 0
4 1 -0.39204175592239243 0.9665937662134222 0.0 0 0 0

Velocities

1 -0.03722503698784621 0.8131763353762193 0.0
5 0.06956079996568368 -0.07973564699855688 0.0
6 -0.02067936107397677 -0.44483957029245974 0.0
3 -0.3281571817763205 -0.3438271438652558 0.0
7 -0.40062913183313503 0.5248504448351329 0.0
2 -0.11462356649606785 0.11916172520615616 0.0
4 0.8317534782016477 -0.5887861442612471 0.0
