LAMMPS data file via write_data, version 29 Oct 2020, timestep = 497000

7 atoms
1 atom types

-5.0 5.0 xlo xhi
-5.0 5.0 ylo yhi
-5.0 5.0 zlo zhi

Masses

1 1

Atoms # atomic

6 1 -0.4671294960933011 -1.2492523567983862 0.0 0 0 0
5 1 -1.1368197742934685 -0.4117630415299954 0.0 0 0 0
7 1 -0.9158764839301836 0.5799930497700438 0.0 0 0 0
1 1 0.6878547921895762 -0.9181470619506094 0.0 0 0 0
2 1 -0.08747941585913376 -0.11541408368864284 0.0 0 0 0
3 1 1.052400684836513 0.11803197742429421 0.0 0 0 0
4 1 0.16687952596605343 0.963223717644145 0.0 0 0 0

Velocities

6 0.5350560404263093 0.5270433480895453 0.0
5 -0.3639708383430773 -0.27683809629067796 0.0
7 -0.34339863121583647 0.38928522270228727 0.0
1 -0.23647406206245292 -0.7631471329948619 0.0
2 0.38775251470695543 -0.22563216309762826 0.0
3 0.07194570318787417 0.16829296462206866 0.0
4 -0.050910726699746556 0.18099585696921275 0.0
