LAMMPS data file via write_data, version 29 Oct 2020, timestep = 171000

7 atoms
1 atom types

-5.0 5.0 xlo xhi
-5.0 5.0 ylo yhi
-5.0 5.0 zlo zhi

Masses

1 1

Atoms # atomic

1 1 -0.13156670800092915 -1.2825331611753434 0.0 0 0 0
5 1 -1.1381513769720757 0.29847601440614346 0.0 0 0 0
6 1 -1.1028648540494832 -0.8554958671764578 0.0 0 0 0
3 1 0.9350196405634092 0.6582977891652512 0.0 0 0 0
7 1 -0.11364753238479179 -0.19085638216307527 0.0 0 0 0
2 1 0.9875158037881986 -0.5490509465176271 0.0 0 0 0
4 1 -0.13647514010459513 0.8878347544856218 0.0 0 0 0

Velocities

1 -0.009894602127563983 0.1982718134576612 0.0
5 -0.46142112114951295 0.6147280686779187 0.0
6 0.0954304271838696 0.03595156547155981 0.0
3 0.036666174335560534 0.29763989842191735 0.0
7 0.12755913865155746 -0.5680000753040255 0.0
2 0.4606366351557001 -0.30006436986551416 0.0
4 -0.24897665204962902 -0.2785269008595668 0.0
