LAMMPS data file via write_data, version 29 Oct 2020, timestep = 942000

7 atoms
1 atom types

-5.0 5.0 xlo xhi
-5.0 5.0 ylo yhi
-5.0 5.0 zlo zhi

Masses

1 1

Atoms # atomic

6 1 -0.4038731204754257 -1.257670583325753 0.0 0 0 0
5 1 -1.20006132140256 -0.5508708905069288 0.0 0 0 0
7 1 -0.9192140687724494 0.7007109991250603 0.0 0 0 0
1 1 0.6656465692502422 -0.923549308740393 0.0 0 0 0
2 1 -0.1023759235259579 -0.18486136570311706 0.0 0 0 0
4 1 0.1430543401384066 0.8608563276054209 0.0 0 0 0
3 1 1.1166533579564584 0.3220570221531003 0.0 0 0 0

Velocities

6 0.3361689585977652 0.11248636621498476 0.0
5 0.23635770289788435 -0.0839142972248745 0.0
7 -0.526467176818092 0.04002556510586676 0.0
1 -0.2562229297229681 -0.30849511409673286 0.0
2 -0.3667547341187982 -0.04179919027144559 0.0
4 0.4237775841495848 0.3443891003196111 0.0
3 0.15314059501470795 -0.06269243004746775 0.0
