LAMMPS data file via write_data, version 29 Oct 2020, timestep = 512000

7 atoms
1 atom types

-5.0 5.0 xlo xhi
-5.0 5.0 ylo yhi
-5.0 5.0 zlo zhi

Masses

1 1

Atoms # atomic

6 1 -0.19814195968594792 -0.8664509667595042 0.0 0 0 0
1 1 0.9029556050069987 -1.2916709572924139 0.0 0 0 0
5 1 -1.2697350783929382 -0.398891495757636 0.0 0 0 0
7 1 -1.2397264665461512 0.6816138091630453 0.0 0 0 0
2 1 -0.29875072047115864 0.20962706162698008 0.0 0 0 0
4 1 0.6252855987408361 0.8563352953662814 0.0 0 0 0
3 1 0.7779428541677588 -0.2238905454848775 0.0 0 0 0

Velocities

6 -0.33971132604636883 -0.05484103116842057 0.0
1 0.09515130985253543 -0.21762941028481475 0.0
5 0.5844944370342677 -0.13371132909836597 0.0
7 0.007391870859119798 0.05143138538553437 0.0
2 -0.33326460193413165 0.04059224002558319 0.0
4 0.16526195792586745 0.6387449432823014 0.0
3 -0.179323647691269 -0.3245867981418828 0.0
