LAMMPS data file via write_data, version 29 Oct 2020, timestep = 878000

7 atoms
1 atom types

-5.0 5.0 xlo xhi
-5.0 5.0 ylo yhi
-5.0 5.0 zlo zhi

Masses

1 1

Atoms # atomic

6 1 -0.5613561360047173 -1.0653013516726921 0.0 0 0 0
1 1 0.5463342323468299 -1.0350867443314622 0.0 0 0 0
5 1 -1.4413314114699984 -0.43092904344576277 0.0 0 0 0
7 1 -0.9295336522040628 0.5889734201488094 0.0 0 0 0
2 1 0.001201455809017129 -0.012141765052045719 0.0 0 0 0
4 1 0.47657648521699236 0.960036031349694 0.0 0 0 0
3 1 1.2079388594230007 -0.03887834635524747 0.0 0 0 0

Velocities

6 0.343095027129588 0.1238744230678585 0.0
1 -0.3980576463186118 0.2830768241450119 0.0
5 -0.020307280064024977 0.020212466079457588 0.0
7 0.09055283438631026 -0.07496645638198675 0.0
2 -0.07885941430097869 -0.180744358908492 0.0
4 -0.07428936723266115 -0.15661146681328544 0.0
3 0.13786584640045682 -0.014841431188601917 0.0
