LAMMPS data file via write_data, version 29 Oct 2020, timestep = 86000

7 atoms
1 atom types

-5.0 5.0 xlo xhi
-5.0 5.0 ylo yhi
-5.0 5.0 zlo zhi

Masses

1 1

Atoms # atomic

1 1 0.15531065711956227 -1.4053857850572389 0.0 0 0 0
5 1 -1.1657530667372649 0.14605285555176706 0.0 0 0 0
6 1 -0.8217398308843007 -0.8385061378562954 0.0 0 0 0
3 1 0.6626066620173481 0.7195303549174455 0.0 0 0 0
7 1 -0.03806138750764737 -0.09126780897846629 0.0 0 0 0
4 1 -0.4558711289436344 0.9463509906830108 0.0 0 0 0
2 1 0.9633379278003223 -0.5101022682094781 0.0 0 0 0

Velocities

1 0.09208246690969898 0.0995243274542932 0.0
5 0.032302906927700874 0.22713012373883398 0.0
6 -0.26061096705900577 -0.39880648529810564 0.0
3 0.23406311859023857 0.19546103834730855 0.0
7 -0.7609774637314165 0.4373963964671066 0.0
4 0.30679986127178527 -0.5560543398091594 0.0
2 0.3563400770909678 -0.004651060900290312 0.0
