LAMMPS data file via write_data, version 29 Oct 2020, timestep = 476000

7 atoms
1 atom types

-5.0 5.0 xlo xhi
-5.0 5.0 ylo yhi
-5.0 5.0 zlo zhi

Masses

1 1

Atoms # atomic

6 1 -0.35115775687261935 -1.2868023792676766 0.0 0 0 0
5 1 -1.2134673997358834 -0.46958301627732096 0.0 0 0 0
7 1 -0.8355358171887386 0.5717705628983915 0.0 0 0 0
1 1 0.7428583974549803 -0.9431827461077043 0.0 0 0 0
2 1 -0.10948324107732604 -0.19477856090632234 0.0 0 0 0
4 1 0.1285846131068772 1.0444544713287283 0.0 0 0 0
3 1 0.9380310371229591 0.24479386921308166 0.0 0 0 0

Velocities

6 -0.7890462871788217 -0.5370254086022335 0.0
5 0.1309010277936939 0.09328897966416423 0.0
7 0.27058260390638267 -0.7772890460694801 0.0
1 0.19397429831479113 0.036065875578617956 0.0
2 0.525535143050804 0.5418914930808935 0.0
4 -0.12675109895857434 0.8090166883382492 0.0
3 -0.20519568692824905 -0.16594858199025903 0.0
