LAMMPS data file via write_data, version 29 Oct 2020, timestep = 154000

7 atoms
1 atom types

-5.0 5.0 xlo xhi
-5.0 5.0 ylo yhi
-5.0 5.0 zlo zhi

Masses

1 1

Atoms # atomic

1 1 0.07421676570480273 -1.2811403336111644 0.0 0 0 0
5 1 -1.0916815619672784 0.41589838479090624 0.0 0 0 0
6 1 -1.028171394557445 -0.7985503746304363 0.0 0 0 0
3 1 0.718958087088278 0.40756676060287894 0.0 0 0 0
7 1 -0.15811682590749085 -0.19316640409405222 0.0 0 0 0
2 1 0.9454850323441051 -0.582733882794106 0.0 0 0 0
4 1 -0.1608602698620273 0.998798050768621 0.0 0 0 0

Velocities

1 -0.3027092861666504 -0.05208616926446182 0.0
5 -0.06164771827987601 0.38429327516154177 0.0
6 0.22527175938475522 -0.45365082717881033 0.0
3 -0.14051451029123563 0.4263181114163475 0.0
7 -0.1827011007305135 -0.2671468511857278 0.0
2 -0.13197086970528216 0.39130068015951397 0.0
4 0.5942717257887767 -0.4290282191084501 0.0
