LAMMPS data file via write_data, version 29 Oct 2020, timestep = 267000

7 atoms
1 atom types

-5.0 5.0 xlo xhi
-5.0 5.0 ylo yhi
-5.0 5.0 zlo zhi

Masses

1 1

Atoms # atomic

1 1 0.10201866942137144 -1.2620732807480184 0.0 0 0 0
6 1 -0.9880203753551595 -0.8691301027859483 0.0 0 0 0
5 1 -1.151300584204086 0.2558921282826296 0.0 0 0 0
3 1 0.8093826954196788 0.6035355640879215 0.0 0 0 0
7 1 -0.1453105781378462 -0.19544810725411113 0.0 0 0 0
2 1 0.923862236608954 -0.49719856213293084 0.0 0 0 0
4 1 -0.2508022309384836 0.9310945615357435 0.0 0 0 0

Velocities

1 -0.04296987188059107 0.22291235777978005 0.0
6 -0.67250866544372 -0.28301163040978783 0.0
5 0.9293602832830865 -0.3259759930792738 0.0
3 -0.8028799699544986 0.8248978409677947 0.0
7 -0.27495473681649213 0.30959815858693196 0.0
2 0.20251050836297185 -0.44875762230924987 0.0
4 0.6614424524492186 -0.2996631115362258 0.0
