LAMMPS data file via write_data, version 29 Oct 2020, timestep = 578000

7 atoms
1 atom types

-5.0 5.0 xlo xhi
-5.0 5.0 ylo yhi
-5.0 5.0 zlo zhi

Masses

1 1

Atoms # atomic

1 1 0.5180687367935186 -1.5892235409503759 0.0 0 0 0
5 1 -1.1925359901909858 -0.1424612302705586 0.0 0 0 0
7 1 -1.1753933158135432 1.0215950157719313 0.0 0 0 0
6 1 -0.2609257779988616 -0.7867936338993019 0.0 0 0 0
2 1 -0.1888743445290193 0.29084770693796924 0.0 0 0 0
4 1 0.8128217875733611 0.6375319000453109 0.0 0 0 0
3 1 0.7866687370075643 -0.4648240168286316 0.0 0 0 0

Velocities

1 -0.4003211957036709 0.42439127096917645 0.0
5 0.29745339228750195 -0.3206085031684181 0.0
7 0.271244559274947 -0.06203053686836271 0.0
6 -0.1761283921898732 -0.3861057364011069 0.0
2 0.003664870840928123 -0.13728916347963815 0.0
4 0.16564135181648848 0.40474127020711437 0.0
3 -0.16155458632627026 0.07690139874111936 0.0
