LAMMPS data file via write_data, version 29 Oct 2020, timestep = 920000

7 atoms
1 atom types

-5.0 5.0 xlo xhi
-5.0 5.0 ylo yhi
-5.0 5.0 zlo zhi

Masses

1 1

Atoms # atomic

6 1 -0.39468685914828816 -1.2194559551779507 0.0 0 0 0
5 1 -1.1747830157450334 -0.45298465488994977 0.0 0 0 0
1 1 0.6640163547253073 -0.9095005312599832 0.0 0 0 0
7 1 -0.9518281796344319 0.6038215869245499 0.0 0 0 0
2 1 -0.12046936932683583 -0.18058808737356455 0.0 0 0 0
3 1 1.166416731039584 0.17817318834100962 0.0 0 0 0
4 1 0.11116417124082338 0.947206654056771 0.0 0 0 0

Velocities

6 -0.336868042185091 0.31144320745761694 0.0
5 0.4266616069140094 -0.5350418901537372 0.0
1 0.18128027820472495 -0.604637393171357 0.0
7 0.24668900580712363 -0.1524900990686545 0.0
2 -0.27572179813035164 0.8420712120048066 0.0
3 -0.2032426013560554 0.014380672833921235 0.0
4 -0.03879844925428441 0.12427429009735173 0.0
