LAMMPS data file via write_data, version 29 Oct 2020, timestep = 508000

7 atoms
1 atom types

-5.0 5.0 xlo xhi
-5.0 5.0 ylo yhi
-5.0 5.0 zlo zhi

Masses

1 1

Atoms # atomic

6 1 -0.3648523030678634 -1.285734228332203 0.0 0 0 0
1 1 0.6755469383223367 -0.9468616896909964 0.0 0 0 0
5 1 -1.2808074043416817 -0.44834901969256513 0.0 0 0 0
7 1 -0.8357777205663882 0.6572323827874986 0.0 0 0 0
2 1 -0.15410406395624776 -0.11857390040861343 0.0 0 0 0
4 1 0.2699660760630473 1.0035508012903995 0.0 0 0 0
3 1 0.9898583103653129 0.10540785491078129 0.0 0 0 0

Velocities

6 0.1570198309641181 -0.19397972767726235 0.0
1 0.37013066060986444 -0.16199228219269515 0.0
5 0.18726069766793502 0.7208331217415904 0.0
7 0.4864331881754562 0.01931012381297162 0.0
2 -0.09554789331549032 -0.33058951519523544 0.0
4 -0.2988527215863069 -0.40275917799430877 0.0
3 -0.8064437625155542 0.3491774575048817 0.0
