LAMMPS data file via write_data, version 29 Oct 2020, timestep = 958000

7 atoms
1 atom types

-5.0 5.0 xlo xhi
-5.0 5.0 ylo yhi
-5.0 5.0 zlo zhi

Masses

1 1

Atoms # atomic

6 1 -0.21025297774770968 -1.3421011943438284 0.0 0 0 0
5 1 -1.1211869014428153 -0.5269456061486107 0.0 0 0 0
7 1 -0.984305832681587 0.574973223742416 0.0 0 0 0
2 1 -0.14826426778191984 -0.20553966565235002 0.0 0 0 0
3 1 0.9189058920434732 0.2851717514064648 0.0 0 0 0
1 1 0.7721307947005918 -0.7967972844226264 0.0 0 0 0
4 1 0.07280312609340991 0.9779109760168978 0.0 0 0 0

Velocities

6 0.11543295389517692 -0.8473735351028748 0.0
5 -0.768219200336495 0.09442841158089699 0.0
7 -0.006232528903580989 0.3232003224158236 0.0
2 0.6461634117350782 0.13161171064263064 0.0
3 0.3129790941529072 0.24953428330300978 0.0
1 0.1301094261419826 -0.41345824685501265 0.0
4 -0.4302331566849835 0.46205705401547037 0.0
