LAMMPS data file via write_data, version 29 Oct 2020, timestep = 658000

7 atoms
1 atom types

-5.0 5.0 xlo xhi
-5.0 5.0 ylo yhi
-5.0 5.0 zlo zhi

Masses

1 1

Atoms # atomic

6 1 -0.43134648139631593 -1.2143262648376318 0.0 0 0 0
5 1 -1.2577317702538748 -0.5411693133403506 0.0 0 0 0
1 1 0.657954721824838 -0.923643453094934 0.0 0 0 0
7 1 -0.8854680179741585 0.6126478745690207 0.0 0 0 0
2 1 -0.09151453703080283 -0.11549424696801841 0.0 0 0 0
3 1 1.1263185145673777 0.2128215007270019 0.0 0 0 0
4 1 0.18161740315960534 0.9358361036685255 0.0 0 0 0

Velocities

6 -0.006238810686652857 -0.10936812546922997 0.0
5 -0.47488617888214957 -0.05596910545618013 0.0
1 0.6549012252835793 -0.437003323149567 0.0
7 0.482278487029455 -0.324684249822618 0.0
2 -0.2402532088780039 0.7315994607636942 0.0
3 -0.46097888504281653 -0.1683259950260745 0.0
4 0.04517737117666554 0.36375133815990934 0.0
