LAMMPS data file via write_data, version 29 Oct 2020, timestep = 916000

7 atoms
1 atom types

-5.0 5.0 xlo xhi
-5.0 5.0 ylo yhi
-5.0 5.0 zlo zhi

Masses

1 1

Atoms # atomic

6 1 -0.43703753338932066 -1.3416697038532321 0.0 0 0 0
1 1 0.6227748841754719 -1.1132902922439738 0.0 0 0 0
5 1 -1.2433086114032075 -0.379616641689456 0.0 0 0 0
7 1 -0.7271301494419102 0.6400745445335153 0.0 0 0 0
2 1 -0.10339879951588755 -0.22363981297924657 0.0 0 0 0
3 1 0.9144011681741092 0.22939984745017802 0.0 0 0 0
4 1 0.27352887454882574 1.155414259405135 0.0 0 0 0

Velocities

6 -0.16891321635016418 -0.009442116380767739 0.0
1 0.22737881861599166 -0.6028902975533583 0.0
5 0.04638176679679315 -0.30282020439484864 0.0
7 0.2294149455704574 -0.03808582635562667 0.0
2 0.022226774200470128 0.6761013665098322 0.0
3 -0.3238679006031553 -0.08267700649786017 0.0
4 -0.032621188230320765 0.359814084672582 0.0
