LAMMPS data file via write_data, version 29 Oct 2020, timestep = 749000

7 atoms
1 atom types

-5.0 5.0 xlo xhi
-5.0 5.0 ylo yhi
-5.0 5.0 zlo zhi

Masses

1 1

Atoms # atomic

1 1 0.5416799610054983 -1.1564604041391695 0.0 0 0 0
6 1 -0.6062102785792898 -1.2108502563176842 0.0 0 0 0
5 1 -1.263912623777349 -0.2634310620121341 0.0 0 0 0
7 1 -0.7211744162052449 0.8490156002497576 0.0 0 0 0
2 1 -0.12711331668711276 -0.13055006854958154 0.0 0 0 0
4 1 0.47902741884747585 1.0397668937956839 0.0 0 0 0
3 1 0.9975330883801075 -0.16081850234543926 0.0 0 0 0

Velocities

1 -0.468591013728602 -0.008376140771948239 0.0
6 -0.3981829448478766 0.23284827522889492 0.0
5 0.33008052003194704 -0.12568618834925485 0.0
7 0.29211595679965474 -0.4590255462926102 0.0
2 0.15874802364039306 0.02368087786646131 0.0
4 -0.4840355180725009 0.20726683665363932 0.0
3 0.569864976177113 0.12929188566477656 0.0
