LAMMPS data file via write_data, version 29 Oct 2020, timestep = 558000

7 atoms
1 atom types

-5.0 5.0 xlo xhi
-5.0 5.0 ylo yhi
-5.0 5.0 zlo zhi

Masses

1 1

Atoms # atomic

6 1 -0.6291108673224557 -1.2056707475046171 0.0 0 0 0
1 1 0.45649099045363845 -1.2026471097242024 0.0 0 0 0
5 1 -1.193435324854269 -0.015695998115800237 0.0 0 0 0
7 1 -0.684751196125107 0.9531370051662418 0.0 0 0 0
2 1 -0.1152820975343232 -0.1863183116960129 0.0 0 0 0
4 1 0.48352756312608586 0.8453484726660063 0.0 0 0 0
3 1 0.9823907650898823 -0.2214811099628744 0.0 0 0 0

Velocities

6 -0.4105427104209312 0.08635497259593135 0.0
1 0.6524848737362662 0.46081404645849344 0.0
5 0.49291131764566976 0.39212860164548646 0.0
7 -0.3997972645761547 -0.3145051310274696 0.0
2 0.02866681215009521 0.43057851008546405 0.0
4 -0.32625221359748724 -0.4643548974793036 0.0
3 -0.03747081493742796 -0.5910161022786995 0.0
