LAMMPS data file via write_data, version 29 Oct 2020, timestep = 489000

7 atoms
1 atom types

-5.0 5.0 xlo xhi
-5.0 5.0 ylo yhi
-5.0 5.0 zlo zhi

Masses

1 1

Atoms # atomic

6 1 -0.3617176317571961 -1.3010746994766464 0.0 0 0 0
1 1 0.7447075067319529 -0.923507625868476 0.0 0 0 0
5 1 -1.086346462470241 -0.4936497345462779 0.0 0 0 0
7 1 -1.0390361394636898 0.7278679792008701 0.0 0 0 0
2 1 -0.021039292333709693 -0.16551390350235579 0.0 0 0 0
4 1 0.05844971215411412 0.9339211064455792 0.0 0 0 0
3 1 1.0048121399526995 0.1886290786220565 0.0 0 0 0

Velocities

6 0.26341325144004074 0.25910261416376285 0.0
1 0.05573890525210844 -0.650918835931315 0.0
5 -0.3804964436623747 -0.4707719308931635 0.0
7 0.16324644392435875 -0.3043974210151348 0.0
2 -0.31355731646775453 0.5882520324393147 0.0
4 -0.0038794264524854988 0.8632929192395161 0.0
3 0.21553458596613695 -0.2845593780030301 0.0
