LAMMPS data file via write_data, version 29 Oct 2020, timestep = 500

7 atoms
1 atom types

-5.0 5.0 xlo xhi
-5.0 5.0 ylo yhi
-5.0 5.0 zlo zhi

Masses

1 1

Atoms # atomic

1 1 0.14023046725807142 -1.2091201448366857 0.0 0 0 0
5 1 -1.1370476983999687 0.22207693975481105 0.0 0 0 0
2 1 1.0152280282554527 -0.5685153505702928 0.0 0 0 0
3 1 0.7312671557905671 0.5721589952482877 0.0 0 0 0
4 1 -0.3161808120365978 0.9623087067181016 0.0 0 0 0
6 1 -0.9921457614924193 -0.8786731085975923 0.0 0 0 0
7 1 -0.14152154649848528 -0.13356383666058805 0.0 0 0 0

Velocities

1 0.35451630495082886 -0.12969887946404277 0.0
5 -0.6085722509138203 -0.012190222514252513 0.0
2 -0.4242678309573763 0.5835117952960717 0.0
3 0.09854698883755696 -0.26626300205841824 0.0
4 0.6089453236179316 0.015543281848199093 0.0
6 -0.24865840549490642 -0.10990507226632637 0.0
7 0.21948986995978498 -0.08099790084123061 0.0
