LAMMPS data file via write_data, version 29 Oct 2020, timestep = 294000

7 atoms
1 atom types

-5.0 5.0 xlo xhi
-5.0 5.0 ylo yhi
-5.0 5.0 zlo zhi

Masses

1 1

Atoms # atomic

6 1 -0.2839538053464151 -1.2329756989238956 0.0 0 0 0
5 1 -1.1930522146774956 -0.5337531093129595 0.0 0 0 0
1 1 0.877228340319896 -0.9399701558615865 0.0 0 0 0
7 1 -1.0364796847213888 0.7106946513306933 0.0 0 0 0
2 1 -0.13188061371771392 -0.20743791144569557 0.0 0 0 0
3 1 0.9314202121918742 0.1821007224215325 0.0 0 0 0
4 1 0.13654759875935982 0.9880137027678035 0.0 0 0 0

Velocities

6 -0.26320781789908304 -0.11162464887446945 0.0
5 0.14074543957120653 0.32159166777040016 0.0
1 -0.2757380349933516 0.28962854205481897 0.0
7 -0.17598064453579781 -0.6004022002727797 0.0
2 0.190185762255449 0.3431474409408013 0.0
3 0.5373213177973226 -0.19578091949138737 0.0
4 -0.15332602219576755 -0.04655988212742174 0.0
