LAMMPS data file via write_data, version 29 Oct 2020, timestep = 417000

7 atoms
1 atom types

-5.0 5.0 xlo xhi
-5.0 5.0 ylo yhi
-5.0 5.0 zlo zhi

Masses

1 1

Atoms # atomic

6 1 -0.3702681074501504 -1.1657122268626856 0.0 0 0 0
5 1 -1.245565404502991 -0.5083998907724738 0.0 0 0 0
7 1 -1.0675186929845355 0.6229285252037424 0.0 0 0 0
1 1 0.7879467486991255 -0.9448297221916145 0.0 0 0 0
2 1 -0.19158553405847867 -0.08980366250789033 0.0 0 0 0
4 1 0.3134775816866388 0.9001750818833862 0.0 0 0 0
3 1 1.0733432414129638 0.15231409616237823 0.0 0 0 0

Velocities

6 0.39161315093640764 -0.7153230930612091 0.0
5 0.19274367584588925 0.4292976182532119 0.0
7 0.0793471692412297 0.3624695455061045 0.0
1 -0.1163910066936369 -0.3348735998728395 0.0
2 -0.3280563083105443 -0.042150688005509356 0.0
4 -0.23104783922511954 -0.023862918515358225 0.0
3 0.011791158205774956 0.3244431356955418 0.0
