LAMMPS data file via write_data, version 29 Oct 2020, timestep = 280000

7 atoms
1 atom types

-5.0 5.0 xlo xhi
-5.0 5.0 ylo yhi
-5.0 5.0 zlo zhi

Masses

1 1

Atoms # atomic

1 1 0.324669667292923 -1.578688155548285 0.0 0 0 0
5 1 -1.3848111627376538 -0.10336790166821175 0.0 0 0 0
6 1 -0.5274230917258698 -0.8607792879018162 0.0 0 0 0
3 1 0.8141640407621323 0.5804647768549184 0.0 0 0 0
7 1 -0.3459266341323933 0.2150729067833404 0.0 0 0 0
2 1 0.559548548334178 -0.5235620615828289 0.0 0 0 0
4 1 -0.1403915349823796 1.2375319240435012 0.0 0 0 0

Velocities

1 -0.01765498182730247 -0.10737731562119633 0.0
5 -0.09742946653565371 -0.2418475663821601 0.0
6 -0.2329493586171917 0.35995270224114145 0.0
3 0.3158313643917947 -0.13586831955742612 0.0
7 -0.40504729772573517 0.2177625504019276 0.0
2 0.6563247799538806 -0.31048675494602973 0.0
4 -0.2190750396398222 0.21786470386371118 0.0
