LAMMPS data file via write_data, version 29 Oct 2020, timestep = 601000

7 atoms
1 atom types

-5.0 5.0 xlo xhi
-5.0 5.0 ylo yhi
-5.0 5.0 zlo zhi

Masses

1 1

Atoms # atomic

1 1 0.6214653213472907 -1.167617486837427 0.0 0 0 0
6 1 -0.5108633482704943 -1.1804416217455218 0.0 0 0 0
5 1 -1.2222965594521529 -0.31297629159676715 0.0 0 0 0
2 1 -0.05085444111424922 -0.09494970869096046 0.0 0 0 0
4 1 0.36863767353868054 0.9156087240998602 0.0 0 0 0
7 1 -0.944921128092117 0.7874533688694318 0.0 0 0 0
3 1 1.0386623148981309 0.019595216682875907 0.0 0 0 0

Velocities

1 0.13659954669681226 0.0251829244428539 0.0
6 0.44372556296087046 0.051102241637586615 0.0
5 -0.1972391682676402 -0.254503390499061 0.0
2 -0.04622817086389093 0.23892192033067333 0.0
4 0.14381102922028624 -0.7191555274380015 0.0
7 -0.3700654678557078 0.7493222876567854 0.0
3 -0.11060333189065667 -0.09087045613094248 0.0
