LAMMPS data file via write_data, version 29 Oct 2020, timestep = 175000

7 atoms
1 atom types

-5.0 5.0 xlo xhi
-5.0 5.0 ylo yhi
-5.0 5.0 zlo zhi

Masses

1 1

Atoms # atomic

1 1 -0.003958243181306297 -1.2825017272467887 0.0 0 0 0
5 1 -1.1056576416909751 0.39057431647220375 0.0 0 0 0
6 1 -0.988538143169277 -0.798130056730902 0.0 0 0 0
3 1 0.8643298842268693 0.4103734591615373 0.0 0 0 0
7 1 -0.145151830403065 -0.12787650078523619 0.0 0 0 0
2 1 0.9381377191359778 -0.725516877090096 0.0 0 0 0
4 1 -0.2593319120793362 1.099749587241894 0.0 0 0 0

Velocities

1 -0.1520436600177872 0.0769229413231738 0.0
5 -0.6307738787564692 0.12612259782152935 0.0
6 0.7950356608510459 0.19559565716706329 0.0
3 0.1655184490902046 -0.4260911874642315 0.0
7 0.4028342423420079 -0.41669615503723034 0.0
2 -0.1825486772279397 -0.18262993236111183 0.0
4 -0.39802213628108685 0.6267760785507626 0.0
