LAMMPS data file via write_data, version 29 Oct 2020, timestep = 919000

7 atoms
1 atom types

-5.0 5.0 xlo xhi
-5.0 5.0 ylo yhi
-5.0 5.0 zlo zhi

Masses

1 1

Atoms # atomic

6 1 -0.3144532554006734 -1.219406560274798 0.0 0 0 0
5 1 -1.2276490915009595 -0.42444326649572756 0.0 0 0 0
1 1 0.7613029206111818 -0.9602998769469588 0.0 0 0 0
7 1 -0.9122313031327343 0.6031416530683217 0.0 0 0 0
2 1 -0.08899692591848334 -0.14678214358145275 0.0 0 0 0
4 1 0.1332891925975847 1.0275685092689784 0.0 0 0 0
3 1 0.9485682958944379 0.08689388558304864 0.0 0 0 0

Velocities

6 -0.4729829925566048 -0.39211039336751596 0.0
5 0.6378964179745399 -0.4507915647230432 0.0
1 -0.0764360997782809 -0.1356630184994765 0.0
7 0.7338113011248196 0.09885326309603336 0.0
2 -0.5503232272175862 -0.05954937597282744 0.0
4 0.21555730978119653 0.36502015760110135 0.0
3 -0.48752270932800895 0.5742409318656787 0.0
