LAMMPS data file via write_data, version 29 Oct 2020, timestep = 818000

7 atoms
1 atom types

-5.0 5.0 xlo xhi
-5.0 5.0 ylo yhi
-5.0 5.0 zlo zhi

Masses

1 1

Atoms # atomic

6 1 -0.44864999268418737 -1.28579935903924 0.0 0 0 0
5 1 -1.1258023129339259 -0.3971362825058892 0.0 0 0 0
1 1 0.6847197156617562 -1.01645128396397 0.0 0 0 0
7 1 -1.0043329851212677 0.7875507514416533 0.0 0 0 0
2 1 -0.00931392448195337 -0.21763614172575121 0.0 0 0 0
3 1 1.0026922342934084 0.19801973316341215 0.0 0 0 0
4 1 0.20051709832470146 0.898124783289227 0.0 0 0 0

Velocities

6 0.1621662982904445 0.28938722468637684 0.0
5 -0.28832396539741556 -0.0020227314074486337 0.0
1 -0.2578950535908146 0.5219538578810862 0.0
7 0.16826636448026622 -0.14460368285859423 0.0
2 0.22005054155516973 0.24676171363469954 0.0
3 0.4629864873142298 -0.3306189480327687 0.0
4 -0.46725067265177 -0.5808574339033657 0.0
