LAMMPS data file via write_data, version 29 Oct 2020, timestep = 332000

7 atoms
1 atom types

-5.0 5.0 xlo xhi
-5.0 5.0 ylo yhi
-5.0 5.0 zlo zhi

Masses

1 1

Atoms # atomic

6 1 -0.31619754453183324 -1.2085604364749978 0.0 0 0 0
5 1 -1.1801590952731686 -0.6008942890042336 0.0 0 0 0
7 1 -0.9865918437144485 0.5391888326998252 0.0 0 0 0
1 1 0.8031665403840486 -0.8955903991101933 0.0 0 0 0
2 1 -0.07382362138968387 -0.1789411823777671 0.0 0 0 0
3 1 0.990783025332003 0.30939336599591877 0.0 0 0 0
4 1 0.06265237199338541 1.0020763092295593 0.0 0 0 0

Velocities

6 -0.03423715992595194 -0.4246143541439591 0.0
5 -0.4353460112960311 -0.13854726573052595 0.0
7 -0.4551614511110263 0.8457441401353409 0.0
1 0.1274984968538061 -0.24061397761080036 0.0
2 0.3336789010494418 -0.689260420710996 0.0
3 0.5197009500601205 0.6751770568848247 0.0
4 -0.05613372563036997 -0.027885178823932728 0.0
