LAMMPS data file via write_data, version 29 Oct 2020, timestep = 20500

7 atoms
1 atom types

-5.0 5.0 xlo xhi
-5.0 5.0 ylo yhi
-5.0 5.0 zlo zhi

Masses

1 1

Atoms # atomic

1 1 0.09951845727429999 -1.2594068509772935 0.0 0 0 0
5 1 -1.2187671137187015 0.28324849312068157 0.0 0 0 0
6 1 -0.9740209047671751 -0.8501991114857993 0.0 0 0 0
3 1 0.7913487543046753 0.5666943864064391 0.0 0 0 0
7 1 -0.0918637214467754 -0.1122747093249456 0.0 0 0 0
2 1 0.9457236219422647 -0.5934270014537357 0.0 0 0 0
4 1 -0.2521092607124371 0.932036994771674 0.0 0 0 0

Velocities

1 -0.1850732255929032 0.3607662476242991 0.0
5 0.14282022156501772 -0.6759605517789138 0.0
6 -0.11069984625126514 0.08969925954400204 0.0
3 0.28812606757017845 -0.6066353695740249 0.0
7 -0.3411455576242632 0.27975090842035477 0.0
2 0.04880577869899343 0.46701297094572014 0.0
4 0.15716656163423803 0.08536653481857845 0.0
