LAMMPS data file via write_data, version 29 Oct 2020, timestep = 435000

7 atoms
1 atom types

-5.0 5.0 xlo xhi
-5.0 5.0 ylo yhi
-5.0 5.0 zlo zhi

Masses

1 1

Atoms # atomic

6 1 -0.3011014472761851 -1.36946717823454 0.0 0 0 0
5 1 -1.1867649032061782 -0.5486127591090756 0.0 0 0 0
7 1 -1.0080704600056973 0.6255143566802172 0.0 0 0 0
1 1 0.655953334993145 -0.8764146938114075 0.0 0 0 0
2 1 -0.07743016468509456 -0.060396962746510206 0.0 0 0 0
3 1 1.0275070740656773 0.16619442245345514 0.0 0 0 0
4 1 0.1897363989170205 1.0298550156720376 0.0 0 0 0

Velocities

6 -0.476790954174519 0.15110262916001418 0.0
5 -0.07887050386637463 -0.6539292824277757 0.0
7 0.3326179503748113 -0.24463544268664145 0.0
1 0.22083630938207297 -0.06929114662770486 0.0
2 -0.5631557276148441 0.3412898956529588 0.0
3 -0.02272915810272351 0.41909963780844295 0.0
4 0.5880920840015874 0.05636370912064444 0.0
