LAMMPS data file via write_data, version 29 Oct 2020, timestep = 3000

7 atoms
1 atom types

-5.0 5.0 xlo xhi
-5.0 5.0 ylo yhi
-5.0 5.0 zlo zhi

Masses

1 1

Atoms # atomic

1 1 0.054984547116602334 -1.323056804878731 0.0 0 0 0
5 1 -1.2234032766376948 0.19529878796543143 0.0 0 0 0
6 1 -0.9144698316316396 -0.9368420753008192 0.0 0 0 0
2 1 0.8913727843266865 -0.4549770793437799 0.0 0 0 0
3 1 0.9226028029164466 0.7767570740647226 0.0 0 0 0
7 1 -0.16455868941617846 -0.18582495982204245 0.0 0 0 0
4 1 -0.2666985037976658 0.8953172583711256 0.0 0 0 0

Velocities

1 0.030743172095625965 0.08518945918714874 0.0
5 0.2993811782145143 0.2784800487312988 0.0
6 0.12638003412029017 -0.03562427771962317 0.0
2 -0.5286048247921643 0.0019478673180851668 0.0
3 0.19939800373816385 0.04898785895342636 0.0
7 0.3520377810156649 -0.43436863551293453 0.0
4 -0.47933534439209585 0.055387679042593015 0.0
