LAMMPS data file via write_data, version 29 Oct 2020, timestep = 561000

7 atoms
1 atom types

-5.0 5.0 xlo xhi
-5.0 5.0 ylo yhi
-5.0 5.0 zlo zhi

Masses

1 1

Atoms # atomic

6 1 -0.7010563045874122 -1.1055873707628499 0.0 0 0 0
1 1 0.46936759004566814 -1.1860654657679677 0.0 0 0 0
5 1 -1.212584147659695 -0.11703081759376734 0.0 0 0 0
7 1 -0.5426698334010115 0.7926820866938412 0.0 0 0 0
2 1 -0.15140714589500417 -0.2094113407187134 0.0 0 0 0
4 1 0.5500200216610258 0.8921791522442809 0.0 0 0 0
3 1 0.8881596526706909 -0.10009404326909467 0.0 0 0 0

Velocities

6 0.34613242340833844 0.5654171280879149 0.0
1 0.024218494706700296 -0.5550926195354219 0.0
5 0.037557317805914515 -0.3233544807763497 0.0
7 -0.4230084964101889 0.15973103804294037 0.0
2 -0.36936535065095744 -0.19108923685663878 0.0
4 0.5596026343971829 0.41477313814764005 0.0
3 -0.1751370232569635 -0.07038496711018782 0.0
