LAMMPS data file via write_data, version 29 Oct 2020, timestep = 570000

7 atoms
1 atom types

-5.0 5.0 xlo xhi
-5.0 5.0 ylo yhi
-5.0 5.0 zlo zhi

Masses

1 1

Atoms # atomic

6 1 -0.7336164745941336 -1.1554463079394255 0.0 0 0 0
1 1 0.370688046053121 -1.2295217761774817 0.0 0 0 0
5 1 -1.1875095589057543 -0.13830738884844393 0.0 0 0 0
7 1 -0.667291418109003 0.8817183780768466 0.0 0 0 0
2 1 -0.025736156092831648 -0.10394017156005152 0.0 0 0 0
4 1 0.48015759795548557 0.9313400127216633 0.0 0 0 0
3 1 1.063137796530898 -0.2191705454571678 0.0 0 0 0

Velocities

6 0.09299425255718934 0.23109845399433757 0.0
1 0.23906874450456664 -0.6896836255527158 0.0
5 -0.4074445995238025 0.8143450980246051 0.0
7 -0.0013499142749142847 -0.13075374452158112 0.0
2 0.3066003657435455 -0.5497350448846944 0.0
4 -0.531935144634576 -0.010111660736558632 0.0
3 0.3020662956280416 0.3348405236764854 0.0
