LAMMPS data file via write_data, version 29 Oct 2020, timestep = 706000

7 atoms
1 atom types

-5.0 5.0 xlo xhi
-5.0 5.0 ylo yhi
-5.0 5.0 zlo zhi

Masses

1 1

Atoms # atomic

6 1 -0.5516647725234682 -1.2270240130453118 0.0 0 0 0
1 1 0.6264570955182874 -0.9575341560480259 0.0 0 0 0
5 1 -1.2040743066573567 -0.29019370834405417 0.0 0 0 0
7 1 -0.8226386003950027 0.6999264890455642 0.0 0 0 0
2 1 -0.14421794087502804 -0.17761826615742476 0.0 0 0 0
4 1 0.28664202749828616 0.8116401454565735 0.0 0 0 0
3 1 1.1093263303698686 0.10747570979513571 0.0 0 0 0

Velocities

6 -0.49061900884909326 0.8556028765290593 0.0
1 0.5651104306826398 -0.07225326179153024 0.0
5 0.4888674958687904 -0.26336988543136064 0.0
7 -0.21696637967841653 0.014656904128478924 0.0
2 0.42231430693180144 0.15065073291228753 0.0
4 -0.7283906684342144 -0.11033508283549795 0.0
3 -0.04031617652142556 -0.5749522835114922 0.0
