LAMMPS data file via write_data, version 29 Oct 2020, timestep = 825000

7 atoms
1 atom types

-5.0 5.0 xlo xhi
-5.0 5.0 ylo yhi
-5.0 5.0 zlo zhi

Masses

1 1

Atoms # atomic

6 1 -0.3307566495333961 -1.298684046975445 0.0 0 0 0
1 1 0.7640917847142806 -0.9085574276715669 0.0 0 0 0
5 1 -1.322760764356204 -0.31169699515025684 0.0 0 0 0
7 1 -0.9086648971751178 0.7001329327256586 0.0 0 0 0
2 1 -0.0924476571194233 -0.21551368455457956 0.0 0 0 0
3 1 1.0031496618354783 0.159814224002634 0.0 0 0 0
4 1 0.18721835470051473 0.841177198281825 0.0 0 0 0

Velocities

6 -0.3771444719616056 0.015218748317238016 0.0
1 -0.4739590745374424 -0.04657976220417726 0.0
5 -0.24492941552451533 -0.04334537068486397 0.0
7 0.3765610278034405 -0.2237398971564287 0.0
2 0.3735982929088544 -0.41094270970183566 0.0
3 0.5588214108042755 0.8569909948885944 0.0
4 -0.212947769492902 -0.14760200345853505 0.0
