LAMMPS data file via write_data, version 29 Oct 2020, timestep = 575000

7 atoms
1 atom types

-5.0 5.0 xlo xhi
-5.0 5.0 ylo yhi
-5.0 5.0 zlo zhi

Masses

1 1

Atoms # atomic

6 1 -0.28049881604562144 -0.9683102568484461 0.0 0 0 0
1 1 0.7178466017795336 -1.554706087683308 0.0 0 0 0
5 1 -1.3415309142709557 -0.033898101356442 0.0 0 0 0
7 1 -0.9816074620536324 1.0323988540247295 0.0 0 0 0
2 1 -0.24626764867606357 0.19097071764022386 0.0 0 0 0
4 1 0.7725464153507562 0.7360169575431488 0.0 0 0 0
3 1 0.6593416567564353 -0.4357998825100303 0.0 0 0 0

Velocities

6 -0.38977948349840974 0.03679938673673375 0.0
1 0.21090884114060854 -0.11806333425290694 0.0
5 0.2839891268920934 -0.05879570221677627 0.0
7 -0.04072901929936678 -0.03688781255537229 0.0
2 -0.6150955864517785 0.11042771272840095 0.0
4 0.34561484384835356 0.07692952167118046 0.0
3 0.20509127736855437 -0.010409772111378437 0.0
