LAMMPS data file via write_data, version 29 Oct 2020, timestep = 709000

7 atoms
1 atom types

-5.0 5.0 xlo xhi
-5.0 5.0 ylo yhi
-5.0 5.0 zlo zhi

Masses

1 1

Atoms # atomic

6 1 -0.4548294577501722 -1.2320559065931664 0.0 0 0 0
1 1 0.6353883960990526 -1.0286520603821885 0.0 0 0 0
5 1 -1.2074979201201343 -0.27185969713281727 0.0 0 0 0
7 1 -0.8349129784183477 0.8589603538585721 0.0 0 0 0
2 1 -0.15596518828725947 -0.1454837635192524 0.0 0 0 0
4 1 0.2725500285261256 0.7881621911058014 0.0 0 0 0
3 1 1.0450969528889535 -0.002398916636251809 0.0 0 0 0

Velocities

6 0.3659416789300574 0.18997950979731715 0.0
1 0.5922965582623188 -0.8175445960097182 0.0
5 0.04301830579290454 0.21469655588028258 0.0
7 -0.43708975418692214 0.5024056848522468 0.0
2 -0.35355014183087985 -0.02977633393191078 0.0
4 0.18171483052814952 -0.11743159506924343 0.0
3 -0.39233147749554187 0.057670774480969716 0.0
