LAMMPS data file via write_data, version 29 Oct 2020, timestep = 425000

7 atoms
1 atom types

-5.0 5.0 xlo xhi
-5.0 5.0 ylo yhi
-5.0 5.0 zlo zhi

Masses

1 1

Atoms # atomic

6 1 -0.22227471089666376 -1.2053443959520918 0.0 0 0 0
5 1 -1.267571787635155 -0.6358844690522933 0.0 0 0 0
7 1 -0.9705140699819883 0.5876858936294238 0.0 0 0 0
1 1 0.7760726134239798 -0.7977868733469392 0.0 0 0 0
2 1 -0.22706186595495864 -0.16067995642488828 0.0 0 0 0
4 1 0.124249290417566 0.9091871227985658 0.0 0 0 0
3 1 1.0869303634295269 0.26949487925840554 0.0 0 0 0

Velocities

6 -0.24008542127018778 0.05529083850933326 0.0
5 0.19701874468087519 0.5600574311308048 0.0
7 -0.33168197965458773 -0.3719966091363459 0.0
1 0.19900681062921 0.14856436390213842 0.0
2 0.0322228275823916 -0.03494086385893738 0.0
4 -0.4793768211706231 -0.16953957428175875 0.0
3 0.6228958392029158 -0.18743558626529186 0.0
