LAMMPS data file via write_data, version 29 Oct 2020, timestep = 459000

7 atoms
1 atom types

-5.0 5.0 xlo xhi
-5.0 5.0 ylo yhi
-5.0 5.0 zlo zhi

Masses

1 1

Atoms # atomic

6 1 -0.17495236416596396 -1.254185640033515 0.0 0 0 0
5 1 -1.0793127078718254 -0.6218226033144431 0.0 0 0 0
7 1 -1.0919070365322183 0.5866257620369637 0.0 0 0 0
1 1 0.7806249685866337 -0.8416984670545865 0.0 0 0 0
2 1 -0.05974071424988758 -0.1419017812413888 0.0 0 0 0
4 1 -0.06769037776726573 0.9579885872398202 0.0 0 0 0
3 1 0.9928080648072065 0.2816663432580882 0.0 0 0 0

Velocities

6 0.0799943578811439 0.362282185286731 0.0
5 -0.5418236162433392 -0.48427056599163276 0.0
7 0.17316706309696184 -0.42665182109158645 0.0
1 -0.16604641068796788 0.033811343592787514 0.0
2 0.4378954865912401 0.6535358490286653 0.0
4 0.6646219700853754 -0.08979606836713128 0.0
3 -0.647808850723396 -0.04891092245789804 0.0
