LAMMPS data file via write_data, version 29 Oct 2020, timestep = 905000

7 atoms
1 atom types

-5.0 5.0 xlo xhi
-5.0 5.0 ylo yhi
-5.0 5.0 zlo zhi

Masses

1 1

Atoms # atomic

6 1 -0.5997439608877037 -1.2926820332734972 0.0 0 0 0
1 1 0.5026771938668422 -1.0779165138352422 0.0 0 0 0
5 1 -1.1602906448705002 -0.3008132372204377 0.0 0 0 0
7 1 -0.795670414403659 0.7567381697401253 0.0 0 0 0
2 1 -0.0592368279150378 -0.09533980402267006 0.0 0 0 0
4 1 0.3792875700726694 0.8949256089939377 0.0 0 0 0
3 1 1.032806917276945 0.08176001024632808 0.0 0 0 0

Velocities

6 0.23724680695609668 -0.3019685890685705 0.0
1 -0.05271792437628184 -0.3453778683812384 0.0
5 0.15471234093225397 -0.27938705486984755 0.0
7 0.2932989803808643 0.2512865891364737 0.0
2 -1.1489758312621674 0.2075735729844241 0.0
4 0.23478827180478154 0.5116994119537632 0.0
3 0.28164735556452847 -0.043826061755061395 0.0
