LAMMPS data file via write_data, version 29 Oct 2020, timestep = 341000

7 atoms
1 atom types

-5.0 5.0 xlo xhi
-5.0 5.0 ylo yhi
-5.0 5.0 zlo zhi

Masses

1 1

Atoms # atomic

1 1 -0.08586653140681312 -1.3802462072325812 0.0 0 0 0
5 1 -1.097377364275435 0.3062626440864343 0.0 0 0 0
6 1 -1.0536101650695622 -0.8614276691596404 0.0 0 0 0
7 1 -0.05739006880701996 -0.21943575633086357 0.0 0 0 0
3 1 0.8608740908497583 0.6628917681888925 0.0 0 0 0
2 1 0.9560430828538441 -0.5075507869658406 0.0 0 0 0
4 1 -0.22284321126251805 0.9661782084546374 0.0 0 0 0

Velocities

1 -0.0693763523541048 -0.1207751136329085 0.0
5 -0.19761079660817868 0.060398374680034186 0.0
6 0.15504336923136158 0.28256457218088055 0.0
7 -0.17325339948333252 -0.12179889433655272 0.0
3 0.7119564475293191 -0.5145015805545974 0.0
2 0.25291844846175904 0.4312728872859274 0.0
4 -0.6796777167768002 -0.0171602456227944 0.0
