LAMMPS data file via write_data, version 29 Oct 2020, timestep = 767000

7 atoms
1 atom types

-5.0 5.0 xlo xhi
-5.0 5.0 ylo yhi
-5.0 5.0 zlo zhi

Masses

1 1

Atoms # atomic

1 1 -0.531083737289333 -1.16844053067722 0.0 0 0 0
2 1 0.6434715698019148 -1.093900295683851 0.0 0 0 0
6 1 -1.1964848633878071 -0.268612972394605 0.0 0 0 0
5 1 -0.8762822187569477 0.8070709184255715 0.0 0 0 0
7 1 -0.10622961308366857 -0.16951074065360652 0.0 0 0 0
4 1 0.3329517079232343 0.9898798345230251 0.0 0 0 0
3 1 1.033486988194552 -0.12981401251743274 0.0 0 0 0

Velocities

1 0.22086059785111173 -0.4112480014666564 0.0
2 0.252131702346922 0.2225127635842014 0.0
6 -0.014496195720207019 0.37321902882750313 0.0
5 0.2749469095860124 -0.08425900064917649 0.0
7 -0.43870219004611705 -0.036357175684394734 0.0
4 -0.20105414540706207 0.49575537763279853 0.0
3 -0.09368667861049398 -0.5596229922442403 0.0
