LAMMPS data file via write_data, version 29 Oct 2020, timestep = 853000

7 atoms
1 atom types

-5.0 5.0 xlo xhi
-5.0 5.0 ylo yhi
-5.0 5.0 zlo zhi

Masses

1 1

Atoms # atomic

2 1 0.3827998162584823 -1.239355329562706 0.0 0 0 0
6 1 -1.3020910848325926 -0.03338204303181091 0.0 0 0 0
1 1 -0.7758204812135953 -1.0143555648998472 0.0 0 0 0
7 1 -0.13208092216201833 -0.12218203464085844 0.0 0 0 0
4 1 0.6865567980884084 0.8209998269114843 0.0 0 0 0
5 1 -0.6112899635107097 0.8539809270794695 0.0 0 0 0
3 1 1.0517556709142817 -0.2990335808238228 0.0 0 0 0

Velocities

2 -0.16205566516804495 0.7204753175922098 0.0
6 0.12406740170614912 -0.6622024558609335 0.0
1 0.290207149170803 0.4261740219167283 0.0
7 -0.139872961508888 -0.15422161845249688 0.0
4 0.5696617505210237 -0.23088978500892685 0.0
5 -0.42363297668122546 0.27791494931872723 0.0
3 -0.25837469803965113 -0.3772504295053132 0.0
