LAMMPS data file via write_data, version 29 Oct 2020, timestep = 964000

7 atoms
1 atom types

-5.0 5.0 xlo xhi
-5.0 5.0 ylo yhi
-5.0 5.0 zlo zhi

Masses

1 1

Atoms # atomic

2 1 0.11533323716957483 -1.321062521486151 0.0 0 0 0
6 1 -1.121585219744296 0.24896498332380457 0.0 0 0 0
1 1 -0.9285605984968356 -0.8872715763382625 0.0 0 0 0
7 1 -0.06721015794764962 -0.09831919637617322 0.0 0 0 0
4 1 0.7014525107267618 0.67255504082766 0.0 0 0 0
5 1 -0.33379526078249966 1.027577901753162 0.0 0 0 0
3 1 0.934195322842863 -0.6757724306955392 0.0 0 0 0

Velocities

2 -0.17476675648453416 -0.09410322095452645 0.0
6 -0.2822482066114132 -0.3682680328939084 0.0
1 0.30297370842634475 -0.12413547889311377 0.0
7 0.42784459344226977 0.42147895593001516 0.0
4 -0.3177696519125534 -0.4399081679552776 0.0
5 0.6429435128560803 0.034883700584285644 0.0
3 -0.598977199715988 0.5700522441824812 0.0
