LAMMPS data file via write_data, version 29 Oct 2020, timestep = 765000

7 atoms
1 atom types

-5.0 5.0 xlo xhi
-5.0 5.0 ylo yhi
-5.0 5.0 zlo zhi

Masses

1 1

Atoms # atomic

1 1 -0.4238252528383742 -1.2969843195516761 0.0 0 0 0
2 1 0.6338267079065126 -1.0784794553464672 0.0 0 0 0
6 1 -1.29751774271049 -0.18593507196535836 0.0 0 0 0
5 1 -0.832635302935064 0.8487827778367288 0.0 0 0 0
7 1 -0.18250498195820183 -0.17371392692983895 0.0 0 0 0
4 1 0.394943637134524 0.8515129102904244 0.0 0 0 0
3 1 1.007542768799684 0.0014892866874737791 0.0 0 0 0

Velocities

1 -0.5389511124317732 -0.0002546732617755478 0.0
2 0.6192880291324939 0.39848561998122145 0.0
6 -0.17395620262901504 -0.16220042603574314 0.0
5 0.15679500780063632 -0.051593317090489275 0.0
7 -0.4554880025570666 -0.051073984438265406 0.0
4 0.08215871317961124 0.05705250345301767 0.0
3 0.3101535675052792 -0.19041572260793888 0.0
