LAMMPS data file via write_data, version 29 Oct 2020, timestep = 464000

7 atoms
1 atom types

-5.0 5.0 xlo xhi
-5.0 5.0 ylo yhi
-5.0 5.0 zlo zhi

Masses

1 1

Atoms # atomic

1 1 -0.35889114297787217 -1.3114766395641926 0.0 0 0 0
6 1 -1.3270843660556633 -0.5014873439757773 0.0 0 0 0
2 1 0.8443274175364437 -0.8710561985880605 0.0 0 0 0
5 1 -0.8313694082599667 0.6498269696936003 0.0 0 0 0
7 1 -0.09131427659180566 -0.21828914042282635 0.0 0 0 0
3 1 0.9164591776159661 0.20741565501194015 0.0 0 0 0
4 1 0.1477024317101101 1.011738898870702 0.0 0 0 0

Velocities

1 0.04346767815280163 -0.060520850595207384 0.0
6 -0.013161308883140207 -0.16179968340447662 0.0
2 0.15665352312598207 -0.24749387184714663 0.0
5 0.12548118022502996 -0.3339377829336552 0.0
7 -0.4698863704655534 0.2827183966821739 0.0
3 -0.25380596848267833 0.0057798869771201015 0.0
4 0.41125126632767994 0.5152539051211915 0.0
