LAMMPS data file via write_data, version 29 Oct 2020, timestep = 307000

7 atoms
1 atom types

-5.0 5.0 xlo xhi
-5.0 5.0 ylo yhi
-5.0 5.0 zlo zhi

Masses

1 1

Atoms # atomic

1 1 -0.0971762489746687 -1.3644830429111419 0.0 0 0 0
6 1 -1.0982002223165497 -0.6737506483167297 0.0 0 0 0
5 1 -1.1190214470875155 0.37030505813319237 0.0 0 0 0
7 1 -0.07456048254400088 -0.1690383362998325 0.0 0 0 0
3 1 0.8722274499241635 0.4889767595552199 0.0 0 0 0
2 1 0.940121239127935 -0.7265274344964708 0.0 0 0 0
4 1 -0.12356045525913877 1.0411898453829207 0.0 0 0 0

Velocities

1 -0.41077388583911834 -0.5143477060259148 0.0
6 0.3552000984541091 0.3743329790944041 0.0
5 0.4319365270331339 -0.15791312436063615 0.0
7 0.3453645451347753 0.6757158774408626 0.0
3 -0.3185826596523736 -0.03881488746735017 0.0
2 0.1328995965305957 -0.1513205866395673 0.0
4 -0.536044221661098 -0.1876525520418302 0.0
