LAMMPS data file via write_data, version 29 Oct 2020, timestep = 168000

7 atoms
1 atom types

-5.0 5.0 xlo xhi
-5.0 5.0 ylo yhi
-5.0 5.0 zlo zhi

Masses

1 1

Atoms # atomic

1 1 -0.25796990570784584 -1.326327155071468 0.0 0 0 0
6 1 -1.0465915195408058 -0.5948543565046356 0.0 0 0 0
5 1 -1.22124120586784 0.5448007572604738 0.0 0 0 0
7 1 0.021539645171697156 -0.2330621796903268 0.0 0 0 0
2 1 1.0410706230627984 -0.6892934106040374 0.0 0 0 0
4 1 -0.15657803832628178 0.8120290705946906 0.0 0 0 0
3 1 0.9196002340679085 0.45337947507697346 0.0 0 0 0

Velocities

1 -0.4724650713751254 0.11931913515578717 0.0
6 0.3258775927094131 -0.015183434750629304 0.0
5 -0.057728922513826664 -0.25540484977226385 0.0
7 0.24961416879644488 0.49447735435895884 0.0
2 0.1319947119158813 -0.4045904812487266 0.0
4 0.29567806899089855 -0.31122755829015664 0.0
3 -0.4729705485237002 0.3726098345470486 0.0
